! freq	dB(S11)	phase(S11)	dB(S12)	phase(S12)	
!     	dB(S21)	phase(S21)	dB(S22)	phase(S22)	
!S-par simulation data
#  GHz  S  DB  R 50
0.000000	-93.399125	0.000000	-0.000186	0.000000	-0.000186	0.000000	-93.399125	0.000000
0.050000	-61.117259	-90.385018	-0.000292	-0.838616	-0.000292	-0.838616	-61.102466	-90.462237
0.100000	-55.195238	-92.471048	-0.000606	-1.677004	-0.000606	-1.677004	-55.190084	-92.558087
0.150000	-51.767277	-93.734777	-0.001114	-2.514955	-0.001114	-2.514955	-51.767650	-93.799978
0.200000	-49.342247	-94.705589	-0.001795	-3.352303	-0.001795	-3.352303	-49.344668	-94.747151
0.250000	-47.461372	-95.562840	-0.002634	-4.188870	-0.002634	-4.188870	-47.464180	-95.587183
0.300000	-45.923431	-96.389265	-0.003588	-5.024641	-0.003588	-5.024641	-45.926081	-96.401604
0.350000	-44.623833	-97.208575	-0.004639	-5.859546	-0.004639	-5.859546	-44.626152	-97.212683
0.400000	-43.500075	-98.031697	-0.005761	-6.693584	-0.005761	-6.693584	-43.502047	-98.029965
0.450000	-42.511843	-98.862035	-0.006931	-7.526783	-0.006931	-7.526783	-42.513503	-98.855953
0.500000	-41.631533	-99.700085	-0.008129	-8.359199	-0.008129	-8.359199	-41.632929	-99.690590
0.550000	-40.839384	-100.545294	-0.009338	-9.190901	-0.009338	-9.190901	-40.840560	-100.532985
0.600000	-40.120749	-101.396800	-0.010546	-10.021968	-0.010546	-10.021968	-40.121743	-101.382065
0.650000	-39.464466	-102.253720	-0.011744	-10.852482	-0.011744	-10.852482	-39.465310	-102.236814
0.700000	-38.861834	-103.115254	-0.012925	-11.682525	-0.012925	-11.682525	-38.862554	-103.096347
0.750000	-38.305941	-103.980714	-0.014083	-12.512174	-0.014083	-12.512174	-38.306557	-103.959919
0.800000	-37.791203	-104.849523	-0.015218	-13.341502	-0.015218	-13.341502	-37.791735	-104.826911
0.850000	-37.313052	-105.721202	-0.016327	-14.170574	-0.016327	-14.170574	-37.313512	-105.696818
0.900000	-36.867701	-106.595356	-0.017410	-14.999448	-0.017410	-14.999448	-36.868102	-106.569225
0.950000	-36.451979	-107.471664	-0.018469	-15.828176	-0.018469	-15.828176	-36.452330	-107.443795
1.000000	-36.063207	-108.349861	-0.019505	-16.656805	-0.019505	-16.656805	-36.063517	-108.320254
1.050000	-35.699103	-109.229735	-0.020519	-17.485373	-0.020519	-17.485373	-35.699378	-109.198380
1.100000	-35.357708	-110.111116	-0.021514	-18.313917	-0.021514	-18.313917	-35.357955	-110.077996
1.150000	-35.037333	-110.993870	-0.022490	-19.142465	-0.022490	-19.142465	-35.037557	-110.958960
1.200000	-34.736510	-111.877892	-0.023451	-19.971045	-0.023451	-19.971045	-34.736716	-111.841165
1.250000	-34.453960	-112.763107	-0.024399	-20.799680	-0.024399	-20.799680	-34.454151	-112.724529
1.300000	-34.188935	-113.649509	-0.025333	-21.628394	-0.025333	-21.628394	-34.189115	-113.609041
1.350000	-33.940082	-114.537018	-0.026258	-22.457203	-0.026258	-22.457203	-33.940255	-114.494618
1.400000	-33.706535	-115.425623	-0.027174	-23.286123	-0.027174	-23.286123	-33.706703	-115.381244
1.450000	-33.487527	-116.315333	-0.028082	-24.115168	-0.028082	-24.115168	-33.487693	-116.268925
1.500000	-33.282383	-117.206169	-0.028985	-24.944352	-0.028985	-24.944352	-33.282550	-117.157679
1.550000	-33.090505	-118.098173	-0.029884	-25.773688	-0.029884	-25.773688	-33.090674	-118.047541
1.600000	-32.911363	-118.991398	-0.030779	-26.603186	-0.030779	-26.603186	-32.911538	-118.938561
1.650000	-32.744490	-119.885912	-0.031671	-27.432858	-0.031671	-27.432858	-32.744673	-119.830803
1.700000	-32.589476	-120.781799	-0.032562	-28.262715	-0.032562	-28.262715	-32.589668	-120.724347
1.750000	-32.445958	-121.679158	-0.033451	-29.092766	-0.033451	-29.092766	-32.446162	-121.619285
1.800000	-32.313622	-122.578101	-0.034341	-29.923023	-0.034341	-29.923023	-32.313840	-122.515725
1.850000	-32.192194	-123.478756	-0.035231	-30.753494	-0.035231	-30.753494	-32.192429	-123.413789
1.900000	-32.081442	-124.381267	-0.036122	-31.584189	-0.036122	-31.584189	-32.081695	-124.313616
1.950000	-31.981166	-125.285797	-0.037015	-32.415120	-0.037015	-32.415120	-31.981441	-125.215360
2.000000	-31.891206	-126.192522	-0.037909	-33.246294	-0.037909	-33.246294	-31.891503	-126.119193
2.050000	-31.811430	-127.101641	-0.038807	-34.077723	-0.038807	-34.077723	-31.811753	-127.025303
2.100000	-31.741741	-128.013370	-0.039707	-34.909416	-0.039707	-34.909416	-31.742093	-127.933902
2.150000	-31.682071	-128.927950	-0.040610	-35.741383	-0.040610	-35.741383	-31.682454	-128.845218
2.200000	-31.632382	-129.845643	-0.041518	-36.573635	-0.041518	-36.573635	-31.632800	-129.759506
2.250000	-31.592668	-130.766739	-0.042429	-37.406181	-0.042429	-37.406181	-31.593123	-130.677044
2.300000	-31.562949	-131.691555	-0.043345	-38.239033	-0.043345	-38.239033	-31.563446	-131.598138
2.350000	-31.543279	-132.620441	-0.044265	-39.072201	-0.044265	-39.072201	-31.543822	-132.523126
2.400000	-31.533741	-133.553783	-0.045191	-39.905696	-0.045191	-39.905696	-31.534334	-133.452378
2.450000	-31.534450	-134.492004	-0.046122	-40.739529	-0.046122	-40.739529	-31.535097	-134.386303
2.500000	-31.545554	-135.435574	-0.047060	-41.573711	-0.047060	-41.573711	-31.546261	-135.325352
2.550000	-31.567703	-136.385293	-0.048004	-42.408269	-0.048004	-42.408269	-31.568477	-136.270298
2.600000	-31.600667	-137.341514	-0.048955	-43.243200	-0.048955	-43.243200	-31.601513	-137.221480
2.650000	-31.644707	-138.304889	-0.049913	-44.078515	-0.049913	-44.078515	-31.645634	-138.179527
2.700000	-31.700128	-139.276145	-0.050880	-44.914227	-0.050880	-44.914227	-31.701144	-139.145138
2.750000	-31.767281	-140.256097	-0.051855	-45.750346	-0.051855	-45.750346	-31.768397	-140.119099
2.800000	-31.846569	-141.245665	-0.052839	-46.586886	-0.052839	-46.586886	-31.847794	-141.102296
2.850000	-31.938451	-142.245883	-0.053832	-47.423857	-0.053832	-47.423857	-31.939799	-142.095725
2.900000	-32.043448	-143.257930	-0.054836	-48.261272	-0.054836	-48.261272	-32.044934	-143.100521
2.950000	-32.162153	-144.283144	-0.055851	-49.099144	-0.055851	-49.099144	-32.163794	-144.117973
3.000000	-32.295238	-145.323062	-0.056878	-49.937484	-0.056878	-49.937484	-32.297054	-145.149560
3.050000	-32.443465	-146.379448	-0.057917	-50.776306	-0.057917	-50.776306	-32.445479	-146.196983
3.100000	-32.607698	-147.454349	-0.058969	-51.615621	-0.058969	-51.615621	-32.609937	-147.262210
3.150000	-32.788920	-148.550144	-0.060036	-52.455442	-0.060036	-52.455442	-32.791416	-148.347535
3.200000	-32.988248	-149.669623	-0.061118	-53.295781	-0.061118	-53.295781	-32.991040	-149.455645
3.250000	-33.206961	-150.816078	-0.062216	-54.136651	-0.062216	-54.136651	-33.210095	-150.589709
3.300000	-33.446521	-151.993419	-0.063331	-54.978065	-0.063331	-54.978065	-33.450052	-151.753498
3.350000	-33.708610	-153.206333	-0.064464	-55.820034	-0.064464	-55.820034	-33.712607	-152.951527
3.400000	-33.995173	-154.460484	-0.065617	-56.662572	-0.065617	-56.662572	-33.999719	-154.189258
3.450000	-34.308465	-155.762779	-0.066790	-57.505691	-0.066790	-57.505691	-34.313663	-155.473351
3.500000	-34.651119	-157.121732	-0.067985	-58.349402	-0.067985	-58.349402	-34.657098	-156.812021
3.550000	-35.026227	-158.547951	-0.069203	-59.193719	-0.069203	-59.193719	-35.033152	-158.215512
3.600000	-35.437445	-160.054820	-0.070445	-60.038653	-0.070445	-60.038653	-35.445528	-159.696755
3.650000	-35.889127	-161.659455	-0.071713	-60.884217	-0.071713	-60.884217	-35.898643	-161.272298
3.700000	-36.386497	-163.384069	-0.073009	-61.730422	-0.073009	-61.730422	-36.397812	-162.963645
3.750000	-36.935876	-165.257975	-0.074333	-62.577281	-0.074333	-62.577281	-36.949484	-164.799206
3.800000	-37.545900	-167.331434	-0.075689	-63.424835	-0.075689	-63.424835	-37.562502	-166.827756
3.850000	-38.225080	-169.654961	-0.077078	-64.273066	-0.077078	-64.273066	-38.245655	-169.098512
3.900000	-38.984941	-172.309668	-0.078500	-65.121986	-0.078500	-65.121986	-39.010913	-171.690666
3.950000	-39.839521	-175.414334	-0.079958	-65.971606	-0.079958	-65.971606	-39.873027	-174.720677
4.000000	-40.805479	-179.148484	-0.081453	-66.821937	-0.081453	-66.821937	-40.849835	-178.365598
4.050000	-41.901095	176.207526	-0.082988	-67.672990	-0.082988	-67.672990	-41.961629	177.095695
4.100000	-43.141688	170.203315	-0.084564	-68.524776	-0.084564	-68.524776	-43.227189	171.209317
4.150000	-44.524234	162.110179	-0.086183	-69.377304	-0.086183	-69.377304	-44.649195	163.225444
4.200000	-45.982866	150.823910	-0.087847	-70.230584	-0.087847	-70.230584	-46.168938	151.967486
4.250000	-47.290127	135.134031	-0.089559	-71.084627	-0.089559	-71.084627	-47.557176	136.057925
4.300000	-47.981061	115.166238	-0.091320	-71.939442	-0.091320	-71.939442	-48.311625	115.486877
4.350000	-47.636970	93.932876	-0.093133	-72.795037	-0.093133	-72.795037	-47.958798	93.495679
4.400000	-46.384128	75.461089	-0.095000	-73.651423	-0.095000	-73.651423	-46.637708	74.510707
4.450000	-44.722125	61.566301	-0.096924	-74.508606	-0.096924	-74.508606	-44.903102	60.451172
4.500000	-43.024048	51.634232	-0.098906	-75.366595	-0.098906	-75.366595	-43.152023	50.545737
4.550000	-41.439041	44.427061	-0.100949	-76.225398	-0.100949	-76.225398	-41.532031	43.426329
4.600000	-40.000448	38.991073	-0.103055	-77.085023	-0.103055	-77.085023	-40.070420	38.085885
4.650000	-38.701265	34.718518	-0.105228	-77.945476	-0.105228	-77.945476	-38.755678	33.900321
4.700000	-37.524117	31.233734	-0.107469	-78.806763	-0.107469	-78.806763	-37.567657	30.490640
4.750000	-36.451110	28.300478	-0.109781	-79.668892	-0.109781	-79.668892	-36.486800	27.621251
4.800000	-35.466558	25.765575	-0.112167	-80.531867	-0.112167	-80.531867	-35.496416	25.140608
4.850000	-34.557403	23.526435	-0.114630	-81.395694	-0.114630	-81.395694	-34.582816	22.947786
4.900000	-33.712953	21.512224	-0.117171	-82.260377	-0.117171	-82.260377	-33.734903	20.973385
4.950000	-32.924469	19.672669	-0.119795	-83.125922	-0.119795	-83.125922	-32.943669	19.168304
5.000000	-32.184782	17.971206	-0.122503	-83.992331	-0.122503	-83.992331	-32.201762	17.496919
5.050000	-31.487328	16.384526	-0.125303	-84.859646	-0.125303	-84.859646	-31.502490	15.936536
5.100000	-30.827940	14.886773	-0.128194	-85.727833	-0.128194	-85.727833	-30.841593	14.462073
5.150000	-30.202463	13.462554	-0.131178	-86.596892	-0.131178	-86.596892	-30.214849	13.058601
5.200000	-29.607386	12.099760	-0.134258	-87.466827	-0.134258	-87.466827	-29.618697	11.714393
5.250000	-29.039723	10.788749	-0.137438	-88.337637	-0.137438	-88.337637	-29.050112	10.420116
5.300000	-28.496911	9.521758	-0.140721	-89.209324	-0.140721	-89.209324	-28.506505	9.168260
5.350000	-27.976739	8.292463	-0.144109	-90.081887	-0.144109	-90.081887	-27.985643	7.952715
5.400000	-27.477289	7.095674	-0.147605	-90.955326	-0.147605	-90.955326	-27.485587	6.768466
5.450000	-26.996881	5.927085	-0.151213	-91.829640	-0.151213	-91.829640	-27.004646	5.611356
5.500000	-26.534042	4.783104	-0.154935	-92.704826	-0.154935	-92.704826	-26.541335	4.477917
5.550000	-26.087470	3.660704	-0.158775	-93.580883	-0.158775	-93.580883	-26.094343	3.365230
5.600000	-25.656011	2.557326	-0.162735	-94.457807	-0.162735	-94.457807	-25.662508	2.270827
5.650000	-25.239452	1.468845	-0.166803	-95.335482	-0.166803	-95.335482	-25.245611	1.190738
5.700000	-24.835129	0.397633	-0.171015	-96.214138	-0.171015	-96.214138	-24.840983	0.127235
5.750000	-24.443151	-0.660285	-0.175357	-97.093648	-0.175357	-97.093648	-24.448730	-0.923505
5.800000	-24.062774	-1.706292	-0.179832	-97.974007	-0.179832	-97.974007	-24.068102	-1.962813
5.850000	-23.693320	-2.741591	-0.184443	-98.855207	-0.184443	-98.855207	-23.698420	-2.991848
5.900000	-23.334177	-3.767234	-0.189193	-99.737243	-0.189193	-99.737243	-23.339068	-4.011624
5.950000	-22.984787	-4.784144	-0.194085	-100.620105	-0.194085	-100.620105	-22.989487	-5.023027
6.000000	-22.644640	-5.793131	-0.199122	-101.503787	-0.199122	-101.503787	-22.649164	-6.026838
6.050000	-22.313269	-6.794911	-0.204307	-102.388278	-0.204307	-102.388278	-22.317632	-7.023745
6.100000	-21.990247	-7.790120	-0.209643	-103.273570	-0.209643	-103.273570	-21.994460	-8.014359
6.150000	-21.675180	-8.779319	-0.215134	-104.159651	-0.215134	-104.159651	-21.679255	-8.999220
6.200000	-21.367704	-9.763010	-0.220781	-105.046510	-0.220781	-105.046510	-21.371651	-9.978809
6.250000	-21.067484	-10.741641	-0.226588	-105.934137	-0.226588	-105.934137	-21.071312	-10.953556
6.300000	-20.774143	-11.715517	-0.232562	-106.822534	-0.232562	-106.822534	-20.777861	-11.923757
6.350000	-20.487466	-12.685104	-0.238701	-107.711671	-0.238701	-107.711671	-20.491081	-12.889857
6.400000	-20.207184	-13.650723	-0.245008	-108.601535	-0.245008	-108.601535	-20.210703	-13.852163
6.450000	-19.933048	-14.612660	-0.251486	-109.492111	-0.251486	-109.492111	-19.936477	-14.810950
6.500000	-19.664822	-15.571174	-0.258138	-110.383384	-0.258138	-110.383384	-19.668167	-15.766467
6.550000	-19.402290	-16.526499	-0.264967	-111.275337	-0.264967	-111.275337	-19.405557	-16.718938
6.600000	-19.145247	-17.478845	-0.271974	-112.167955	-0.271974	-112.167955	-19.148440	-17.668563
6.650000	-18.893502	-18.428404	-0.279162	-113.061221	-0.279162	-113.061221	-18.896626	-18.615527
6.700000	-18.646876	-19.375349	-0.286534	-113.955115	-0.286534	-113.955115	-18.649934	-19.559993
6.750000	-18.405198	-20.319836	-0.294092	-114.849620	-0.294092	-114.849620	-18.408196	-20.502113
6.800000	-18.168311	-21.262008	-0.301839	-115.744717	-0.301839	-115.744717	-18.171251	-21.442021
6.850000	-17.936065	-22.201992	-0.309775	-116.640386	-0.309775	-116.640386	-17.938950	-22.379841
6.900000	-17.708301	-23.139887	-0.317907	-117.536611	-0.317907	-117.536611	-17.711135	-23.315663
6.950000	-17.484890	-24.075800	-0.326234	-118.433373	-0.326234	-118.433373	-17.487676	-24.249594
7.000000	-17.265723	-25.009850	-0.334759	-119.330642	-0.334759	-119.330642	-17.268463	-25.181744
7.050000	-17.050679	-25.942126	-0.343481	-120.228397	-0.343481	-120.228397	-17.053376	-26.112198
7.100000	-16.839645	-26.872705	-0.352404	-121.126615	-0.352404	-121.126615	-16.842302	-27.041031
7.150000	-16.632514	-27.801661	-0.361528	-122.025273	-0.361528	-122.025273	-16.635132	-27.968310
7.200000	-16.429182	-28.729060	-0.370855	-122.924348	-0.370855	-122.924348	-16.431764	-28.894099
7.250000	-16.229554	-29.654959	-0.380387	-123.823814	-0.380387	-123.823814	-16.232100	-29.818454
7.300000	-16.033500	-30.579355	-0.390133	-124.723662	-0.390133	-124.723662	-16.036014	-30.741367
7.350000	-15.841015	-31.502431	-0.400075	-125.623832	-0.400075	-125.623832	-15.843498	-31.663016
7.400000	-15.651967	-32.424154	-0.410225	-126.524320	-0.410225	-126.524320	-15.654420	-32.583368
7.450000	-15.466276	-33.344566	-0.420584	-127.425098	-0.420584	-127.425098	-15.468701	-33.502461
7.500000	-15.283865	-34.263701	-0.431153	-128.326142	-0.431153	-128.326142	-15.286263	-34.420329
7.550000	-15.104641	-35.181540	-0.441941	-129.227431	-0.441941	-129.227431	-15.107013	-35.336950
7.600000	-14.928560	-36.098166	-0.452939	-130.128929	-0.452939	-130.128929	-14.930908	-36.252406
7.650000	-14.755556	-37.013606	-0.464149	-131.030608	-0.464149	-131.030608	-14.757881	-37.166719
7.700000	-14.585565	-37.927880	-0.475571	-131.932439	-0.475571	-131.932439	-14.587868	-38.079910
7.750000	-14.418525	-38.841011	-0.487204	-132.834395	-0.487204	-132.834395	-14.420808	-38.991997
7.800000	-14.254379	-39.753013	-0.499049	-133.736447	-0.499049	-133.736447	-14.256642	-39.902996
7.850000	-14.093070	-40.663903	-0.511106	-134.638568	-0.511106	-134.638568	-14.095313	-40.812921
7.900000	-13.934544	-41.573693	-0.523373	-135.540728	-0.523373	-135.540728	-13.936769	-41.721782
7.950000	-13.778749	-42.482393	-0.535852	-136.442898	-0.535852	-136.442898	-13.780957	-42.629588
8.000000	-13.625636	-43.390012	-0.548541	-137.345049	-0.548541	-137.345049	-13.627827	-43.536347
8.050000	-13.475158	-44.296555	-0.561439	-138.247154	-0.561439	-138.247154	-13.477333	-44.442064
8.100000	-13.327268	-45.202028	-0.574546	-139.149181	-0.574546	-139.149181	-13.329428	-45.346742
8.150000	-13.181923	-46.106433	-0.587860	-140.051103	-0.587860	-140.051103	-13.184068	-46.250383
8.200000	-13.039080	-47.009772	-0.601381	-140.952890	-0.601381	-140.952890	-13.041211	-47.152987
8.250000	-12.898699	-47.912043	-0.615106	-141.854514	-0.615106	-141.854514	-12.900817	-48.054553
8.300000	-12.760741	-48.813244	-0.629036	-142.755944	-0.629036	-142.755944	-12.762846	-48.955077
8.350000	-12.625143	-49.713465	-0.643151	-143.657174	-0.643151	-143.657174	-12.627236	-49.854646
8.400000	-12.491918	-50.612503	-0.657485	-144.558132	-0.657485	-144.558132	-12.494000	-50.753061
8.450000	-12.361009	-51.510455	-0.672016	-145.458809	-0.672016	-145.458809	-12.363079	-51.650415
8.500000	-12.232380	-52.407313	-0.686744	-146.359177	-0.686744	-146.359177	-12.234439	-52.546701
8.550000	-12.105999	-53.303067	-0.701665	-147.259210	-0.701665	-147.259210	-12.108048	-53.441907
8.600000	-11.981835	-54.197705	-0.716777	-148.158877	-0.716777	-148.158877	-11.983875	-54.336021
8.650000	-11.859859	-55.091216	-0.732079	-149.058153	-0.732079	-149.058153	-11.861889	-55.229032
8.700000	-11.740039	-55.983585	-0.747566	-149.957008	-0.747566	-149.957008	-11.742060	-56.120923
8.750000	-11.622350	-56.874797	-0.763236	-150.855418	-0.763236	-150.855418	-11.624362	-57.011679
8.800000	-11.506774	-57.764809	-0.779089	-151.753343	-0.779089	-151.753343	-11.508778	-57.901257
8.850000	-11.393275	-58.653628	-0.795120	-152.650768	-0.795120	-152.650768	-11.395272	-58.789664
8.900000	-11.281828	-59.541235	-0.811323	-153.547667	-0.811323	-153.547667	-11.283818	-59.676879
8.950000	-11.172407	-60.427609	-0.827697	-154.444014	-0.827697	-154.444014	-11.174390	-60.562881
9.000000	-11.064989	-61.312726	-0.844237	-155.339786	-0.844237	-155.339786	-11.066966	-61.447647
9.050000	-10.959550	-62.196565	-0.860939	-156.234957	-0.860939	-156.234957	-10.961521	-62.331154
9.100000	-10.856068	-63.079100	-0.877800	-157.129505	-0.877800	-157.129505	-10.858034	-63.213376
9.150000	-10.754521	-63.960305	-0.894815	-158.023407	-0.894815	-158.023407	-10.756482	-64.094287
9.200000	-10.654888	-64.840152	-0.911981	-158.916639	-0.911981	-158.916639	-10.656844	-64.973859
9.250000	-10.557148	-65.718613	-0.929293	-159.809181	-0.929293	-159.809181	-10.559100	-65.852063
9.300000	-10.461281	-66.595658	-0.946746	-160.701012	-0.946746	-160.701012	-10.463229	-66.728868
9.350000	-10.367268	-67.471255	-0.964336	-161.592111	-0.964336	-161.592111	-10.369213	-67.604244
9.400000	-10.275210	-68.345158	-0.982072	-162.482351	-0.982072	-162.482351	-10.277153	-68.477944
9.450000	-10.184860	-69.217739	-0.999922	-163.371918	-0.999922	-163.371918	-10.186801	-69.350338
9.500000	-10.096308	-70.088770	-1.017895	-164.260697	-1.017895	-164.260697	-10.098248	-70.221198
9.550000	-10.009538	-70.958215	-1.035985	-165.148671	-1.035985	-165.148671	-10.011476	-71.090488
9.600000	-9.924530	-71.826036	-1.054187	-166.035825	-1.054187	-166.035825	-9.926468	-71.958171
9.650000	-9.841270	-72.692195	-1.072495	-166.922141	-1.072495	-166.922141	-9.843208	-72.824207
9.700000	-9.759739	-73.556652	-1.090906	-167.807607	-1.090906	-167.807607	-9.761678	-73.688557
9.750000	-9.679922	-74.419366	-1.109412	-168.692209	-1.109412	-168.692209	-9.681863	-74.551179
9.800000	-9.601804	-75.280295	-1.128008	-169.575933	-1.128008	-169.575933	-9.603746	-75.412031
9.850000	-9.525368	-76.139396	-1.146689	-170.458769	-1.146689	-170.458769	-9.527313	-76.271070
9.900000	-9.450599	-76.996625	-1.165449	-171.340706	-1.165449	-171.340706	-9.452548	-77.128251
9.950000	-9.377483	-77.851937	-1.184281	-172.221734	-1.184281	-172.221734	-9.379436	-77.983529
10.000000	-9.306003	-78.705286	-1.203181	-173.101845	-1.203181	-173.101845	-9.307961	-78.836859
