! freq	dB(S11)	phase(S11)	dB(S12)	phase(S12)	
!     	dB(S21)	phase(S21)	dB(S22)	phase(S22)	
!S-par simulation data
#  GHz  S  DB  R 50
0.000000	-0.000000	0.000000	-328.197666	0.000000	-328.197666	0.000000	-0.000000	0.000000
0.050000	-0.000107	-0.859712	-66.399556	88.959931	-66.399556	88.959931	-0.000107	-0.860041
0.100000	-0.000423	-1.719169	-60.392652	87.946370	-60.392652	87.946370	-0.000423	-1.719827
0.150000	-0.000937	-2.578135	-56.890021	86.974422	-56.890021	86.974422	-0.000937	-2.579121
0.200000	-0.001628	-3.436411	-54.412600	86.045300	-54.412600	86.045300	-0.001630	-3.437724
0.250000	-0.002486	-4.293770	-52.496256	85.154389	-52.496256	85.154389	-0.002488	-4.295410
0.300000	-0.003470	-5.150165	-50.932890	84.288712	-50.932890	84.288712	-0.003473	-5.152131
0.350000	-0.004563	-6.005470	-49.612689	83.441313	-49.612689	83.441313	-0.004567	-6.007762
0.400000	-0.005742	-6.859630	-48.470092	82.605522	-48.470092	82.605522	-0.005746	-6.862246
0.450000	-0.006983	-7.712618	-47.463019	81.776674	-47.463019	81.776674	-0.006988	-7.715558
0.500000	-0.008269	-8.564434	-46.562873	80.951717	-46.562873	80.951717	-0.008274	-8.567696
0.550000	-0.009581	-9.415090	-45.749334	80.128754	-45.749334	80.128754	-0.009588	-9.418674
0.600000	-0.010908	-10.264611	-45.007438	79.306663	-45.007438	79.306663	-0.010916	-10.268516
0.650000	-0.012239	-11.113029	-44.325841	78.484826	-44.325841	78.484826	-0.012248	-11.117254
0.700000	-0.013566	-11.960374	-43.695734	77.662941	-43.695734	77.662941	-0.013575	-11.964918
0.750000	-0.014883	-12.806676	-43.110133	76.840905	-43.110133	76.840905	-0.014893	-12.811538
0.800000	-0.016186	-13.651962	-42.563409	76.018729	-42.563409	76.018729	-0.016198	-13.657141
0.850000	-0.017474	-14.496252	-42.050953	75.196500	-42.050953	75.196500	-0.017486	-14.501749
0.900000	-0.018745	-15.339564	-41.568944	74.374342	-41.568944	74.374342	-0.018758	-15.345376
0.950000	-0.019999	-16.181907	-41.114180	73.552398	-41.114180	73.552398	-0.020012	-16.188035
1.000000	-0.021236	-17.023288	-40.683948	72.730823	-40.683948	72.730823	-0.021250	-17.029730
1.050000	-0.022457	-17.863707	-40.275930	71.909773	-40.275930	71.909773	-0.022472	-17.870462
1.100000	-0.023662	-18.703160	-39.888129	71.089404	-39.888129	71.089404	-0.023678	-18.710227
1.150000	-0.024855	-19.541639	-39.518813	70.269865	-39.518813	70.269865	-0.024871	-19.549019
1.200000	-0.026034	-20.379135	-39.166468	69.451300	-39.166468	69.451300	-0.026052	-20.386825
1.250000	-0.027203	-21.215632	-38.829766	68.633851	-38.829766	68.633851	-0.027221	-21.223633
1.300000	-0.028361	-22.051071	-38.507616	67.817708	-38.507616	67.817708	-0.028380	-22.059381
1.350000	-0.029511	-22.885477	-38.198892	67.002953	-38.198892	67.002953	-0.029530	-22.894095
1.400000	-0.030654	-23.718830	-37.902661	66.189704	-37.902661	66.189704	-0.030674	-23.727756
1.450000	-0.031790	-24.551109	-37.618091	65.378079	-37.618091	65.378079	-0.031811	-24.560341
1.500000	-0.032921	-25.382293	-37.344431	64.568190	-37.344431	64.568190	-0.032942	-25.391831
1.550000	-0.034048	-26.212360	-37.081004	63.760144	-37.081004	63.760144	-0.034070	-26.222203
1.600000	-0.035171	-27.041288	-36.827197	62.954044	-36.827197	62.954044	-0.035194	-27.051435
1.650000	-0.036291	-27.869053	-36.582451	62.149990	-36.582451	62.149990	-0.036315	-27.879503
1.700000	-0.037409	-28.695210	-36.346918	61.348868	-36.346918	61.348868	-0.037433	-28.705961
1.750000	-0.038526	-29.520741	-36.118553	60.548897	-36.118553	60.548897	-0.038550	-29.531792
1.800000	-0.039641	-30.344762	-35.898274	59.751801	-35.898274	59.751801	-0.039667	-30.356113
1.850000	-0.040757	-31.167705	-35.685001	58.956760	-35.685001	58.956760	-0.040783	-31.179354
1.900000	-0.041872	-31.989304	-35.478731	58.164371	-35.478731	58.164371	-0.041899	-32.001251
1.950000	-0.042988	-32.809561	-35.279093	57.374634	-35.279093	57.374634	-0.043015	-32.821804
2.000000	-0.044104	-33.628660	-35.085494	56.587255	-35.085494	56.587255	-0.044132	-33.641198
2.050000	-0.045222	-34.446137	-34.898243	55.803175	-34.898243	55.803175	-0.045250	-34.458969
2.100000	-0.046340	-35.262899	-34.715857	55.020581	-34.715857	55.020581	-0.046370	-35.276025
2.150000	-0.047461	-36.077809	-34.539542	54.241854	-34.539542	54.241854	-0.047491	-36.091226
2.200000	-0.048583	-36.891316	-34.368447	53.466097	-34.368447	53.466097	-0.048614	-36.905023
2.250000	-0.049709	-37.703401	-34.202355	52.693381	-34.202355	52.693381	-0.049740	-37.717398
2.300000	-0.050836	-38.514045	-34.041060	51.923778	-34.041060	51.923778	-0.050868	-38.528330
2.350000	-0.051967	-39.323230	-33.884372	51.157357	-33.884372	51.157357	-0.052000	-39.337802
2.400000	-0.053101	-40.130937	-33.732108	50.394184	-33.732108	50.394184	-0.053134	-40.145795
2.450000	-0.054238	-40.937149	-33.584098	49.634326	-33.584098	49.634326	-0.054272	-40.952292
2.500000	-0.055380	-41.741849	-33.440183	48.877849	-33.440183	48.877849	-0.055414	-41.757276
2.550000	-0.056525	-42.544954	-33.300279	48.124967	-33.300279	48.124967	-0.056560	-42.560662
2.600000	-0.057675	-43.346512	-33.164171	47.375597	-33.164171	47.375597	-0.057711	-43.362501
2.650000	-0.058829	-44.146508	-33.031724	46.629799	-33.031724	46.629799	-0.058866	-44.162777
2.700000	-0.059989	-44.944928	-32.902807	45.887632	-32.902807	45.887632	-0.060026	-44.961475
2.750000	-0.061154	-45.741757	-32.777299	45.149155	-32.777299	45.149155	-0.061192	-45.758581
2.800000	-0.062324	-46.536982	-32.655081	44.414424	-32.655081	44.414424	-0.062363	-46.554082
2.850000	-0.063500	-47.330588	-32.536043	43.683496	-32.536043	43.683496	-0.063540	-47.347962
2.900000	-0.064683	-48.122563	-32.420078	42.956426	-32.420078	42.956426	-0.064723	-48.140211
2.950000	-0.065872	-48.912894	-32.307085	42.233265	-32.307085	42.233265	-0.065912	-48.930814
3.000000	-0.067068	-49.701570	-32.196965	41.514068	-32.196965	41.514068	-0.067109	-49.719761
3.050000	-0.068271	-50.488580	-32.089628	40.798885	-32.089628	40.798885	-0.068313	-50.507040
3.100000	-0.069482	-51.273912	-31.984983	40.087766	-31.984983	40.087766	-0.069524	-51.292641
3.150000	-0.070701	-52.057557	-31.882944	39.380760	-31.882944	39.380760	-0.070744	-52.076552
3.200000	-0.071928	-52.839503	-31.783430	38.677913	-31.783430	38.677913	-0.071971	-52.858765
3.250000	-0.073163	-53.619743	-31.686362	37.979274	-31.686362	37.979274	-0.073208	-53.639269
3.300000	-0.074408	-54.398267	-31.591663	37.284887	-31.591663	37.284887	-0.074453	-54.418057
3.350000	-0.075664	-55.174765	-31.499479	36.595555	-31.499479	36.595555	-0.075710	-55.194817
3.400000	-0.076930	-55.949456	-31.409570	35.910753	-31.409570	35.910753	-0.076976	-55.969768
3.450000	-0.078202	-56.723236	-31.321220	35.228252	-31.321220	35.228252	-0.078249	-56.743808
3.500000	-0.079489	-57.494287	-31.235655	34.552657	-31.235655	34.552657	-0.079537	-57.515116
3.550000	-0.080782	-58.264726	-31.151333	33.878625	-31.151333	33.878625	-0.080830	-58.285813
3.600000	-0.082093	-59.032109	-31.069846	33.212407	-31.069846	33.212407	-0.082142	-59.053452
3.650000	-0.083407	-59.799184	-30.989313	32.546984	-30.989313	32.546984	-0.083457	-59.820783
3.700000	-0.084744	-60.562878	-30.911657	31.890302	-30.911657	31.890302	-0.084794	-60.584729
3.750000	-0.086081	-61.326572	-30.834689	31.233620	-30.834689	31.233620	-0.086132	-61.348676
3.800000	-0.087445	-62.086558	-30.760628	30.586622	-30.760628	30.586622	-0.087497	-62.108913
3.850000	-0.088809	-62.846544	-30.687194	29.939624	-30.687194	29.939624	-0.088862	-62.869150
3.900000	-0.090200	-63.603120	-30.616327	29.301626	-30.616327	29.301626	-0.090253	-63.625974
3.950000	-0.091593	-64.359385	-30.546209	28.664447	-30.546209	28.664447	-0.091647	-64.382487
4.000000	-0.093012	-65.112543	-30.478342	28.035554	-30.478342	28.035554	-0.093067	-65.135891
4.050000	-0.094436	-65.865079	-30.411335	27.408318	-30.411335	27.408318	-0.094492	-65.888672
4.100000	-0.095884	-66.614813	-30.346283	26.788623	-30.346283	26.788623	-0.095941	-66.638651
4.150000	-0.097341	-67.363614	-30.282190	26.171441	-30.282190	26.171441	-0.097398	-67.387696
4.200000	-0.098821	-68.109925	-30.219777	25.561028	-30.219777	25.561028	-0.098878	-68.134249
4.250000	-0.100312	-68.854991	-30.158409	24.953999	-30.158409	24.953999	-0.100370	-68.879556
4.300000	-0.101824	-69.597880	-30.098468	24.352943	-30.098468	24.352943	-0.101883	-69.622685
4.350000	-0.103351	-70.339215	-30.039643	23.756152	-30.039643	23.756152	-0.103412	-70.364259
4.400000	-0.104898	-71.078687	-29.982013	23.164516	-29.982013	23.164516	-0.104959	-71.103970
4.450000	-0.106464	-71.816298	-29.925556	22.578034	-29.925556	22.578034	-0.106526	-71.841817
4.500000	-0.108046	-72.552362	-29.870083	21.995871	-29.870083	21.995871	-0.108109	-72.578117
4.550000	-0.109652	-73.286260	-29.815824	21.419755	-29.815824	21.419755	-0.109715	-73.312251
4.600000	-0.111272	-74.018927	-29.762359	20.847107	-29.762359	20.847107	-0.111336	-74.045152
4.650000	-0.112920	-74.749129	-29.710134	20.281396	-29.710134	20.281396	-0.112985	-74.775587
4.700000	-0.114578	-75.478412	-29.658535	19.718293	-29.658535	19.718293	-0.114644	-75.505103
4.750000	-0.116270	-76.204938	-29.608182	19.163012	-29.608182	19.163012	-0.116337	-76.231860
4.800000	-0.117969	-76.930855	-29.558311	18.609470	-29.558311	18.609470	-0.118037	-76.958008
4.850000	-0.119706	-77.653727	-29.509676	18.064626	-29.509676	18.064626	-0.119775	-77.681110
4.900000	-0.121448	-78.376298	-29.461397	17.520649	-29.461397	17.520649	-0.121517	-78.403910
4.950000	-0.123233	-79.095544	-29.414327	16.986228	-29.414327	16.986228	-0.123303	-79.123384
5.000000	-0.125018	-79.814790	-29.367511	16.451807	-29.367511	16.451807	-0.125089	-79.842858
5.050000	-0.126852	-80.530441	-29.321857	15.927777	-29.321857	15.927777	-0.126924	-80.558735
5.100000	-0.128686	-81.246092	-29.276442	15.403747	-29.276442	15.403747	-0.128759	-81.274612
5.150000	-0.130567	-81.958479	-29.231993	14.889193	-29.231993	14.889193	-0.130641	-81.987224
5.200000	-0.132453	-82.670569	-29.187835	14.375501	-29.187835	14.375501	-0.132528	-82.699538
5.250000	-0.134383	-83.379723	-29.144467	13.870360	-29.144467	13.870360	-0.134458	-83.408916
5.300000	-0.136321	-84.088289	-29.101426	13.366928	-29.101426	13.366928	-0.136398	-84.117706
5.350000	-0.138301	-84.794244	-29.059019	12.871118	-29.059019	12.871118	-0.138379	-84.823883
5.400000	-0.140295	-85.499328	-29.016956	12.377847	-29.016956	12.377847	-0.140373	-85.529190
5.450000	-0.142326	-86.202121	-28.975392	11.891266	-28.975392	11.891266	-0.142406	-86.232203
5.500000	-0.144377	-86.903767	-28.934172	11.408029	-28.934172	11.408029	-0.144457	-86.934071
5.550000	-0.146461	-87.603436	-28.893335	10.930556	-28.893335	10.930556	-0.146543	-87.633960
5.600000	-0.148570	-88.301692	-28.852824	10.457199	-28.852824	10.457199	-0.148653	-88.332436
5.650000	-0.150709	-88.998278	-28.812602	9.988692	-28.812602	9.988692	-0.150793	-89.029241
5.700000	-0.152878	-89.693195	-28.772669	9.525033	-28.772669	9.525033	-0.152963	-89.724377
5.750000	-0.155074	-90.386742	-28.732953	9.065326	-28.732953	9.065326	-0.155159	-90.418143
5.800000	-0.157305	-91.078373	-28.693468	8.611151	-28.693468	8.611151	-0.157392	-91.109992
5.850000	-0.159558	-91.768927	-28.654150	8.160057	-28.654150	8.160057	-0.159646	-91.800763
5.900000	-0.161853	-92.457328	-28.614988	7.715122	-28.614988	7.715122	-0.161942	-92.489382
5.950000	-0.164165	-93.144937	-28.575964	7.272427	-28.575964	7.272427	-0.164255	-93.177208
6.000000	-0.166526	-93.830168	-28.537001	6.836452	-28.537001	6.836452	-0.166617	-93.862656
6.050000	-0.168899	-94.514882	-28.498168	6.401919	-28.498168	6.401919	-0.168991	-94.547586
6.100000	-0.171327	-95.197006	-28.459285	5.974593	-28.459285	5.974593	-0.171421	-95.229926
6.150000	-0.173762	-95.878876	-28.420543	5.547958	-28.420543	5.547958	-0.173857	-95.912013
6.200000	-0.176260	-96.557957	-28.381623	5.128931	-28.381623	5.128931	-0.176355	-96.591310
6.250000	-0.178758	-97.237038	-28.342876	4.709905	-28.342876	4.709905	-0.178855	-97.270606
6.300000	-0.181327	-97.913144	-28.303806	4.298794	-28.303806	4.298794	-0.181425	-97.946928
6.350000	-0.183896	-98.589250	-28.264911	3.887682	-28.264911	3.887682	-0.183995	-98.623250
6.400000	-0.186531	-99.262693	-28.225633	3.483442	-28.225633	3.483442	-0.186632	-99.296908
6.450000	-0.189173	-99.935894	-28.186482	3.079825	-28.186482	3.079825	-0.189275	-99.970324
6.500000	-0.191877	-100.606734	-28.146911	2.682074	-28.146911	2.682074	-0.191980	-100.641380
6.550000	-0.194593	-101.277102	-28.107401	2.285496	-28.107401	2.285496	-0.194697	-101.311964
6.600000	-0.197366	-101.945403	-28.067455	1.893827	-28.067455	1.893827	-0.197472	-101.980480
6.650000	-0.200159	-102.613014	-28.027488	1.503795	-28.027488	1.503795	-0.200266	-102.648307
6.700000	-0.203003	-103.278838	-27.987090	1.117777	-27.987090	1.117777	-0.203111	-103.314347
6.750000	-0.205873	-103.943769	-27.946574	0.733764	-27.946574	0.733764	-0.205983	-103.979494
6.800000	-0.208790	-104.607183	-27.905654	0.352937	-27.905654	0.352937	-0.208901	-104.643124
6.850000	-0.211740	-105.269513	-27.864504	-0.025614	-27.864504	-0.025614	-0.211852	-105.305671
6.900000	-0.214730	-105.930585	-27.822994	-0.401729	-27.822994	-0.401729	-0.214843	-105.966959
6.950000	-0.217761	-106.590397	-27.781130	-0.775408	-27.781130	-0.775408	-0.217876	-106.626988
7.000000	-0.220827	-107.249195	-27.738971	-1.147313	-27.738971	-1.147313	-0.220943	-107.286003
7.050000	-0.223941	-107.906572	-27.696323	-1.516735	-27.696323	-1.516735	-0.224058	-107.943598
7.100000	-0.227083	-108.563168	-27.653460	-1.884951	-27.653460	-1.884951	-0.227202	-108.600411
7.150000	-0.230281	-109.218197	-27.609964	-2.250754	-27.609964	-2.250754	-0.230401	-109.255660
7.200000	-0.233502	-109.872662	-27.566350	-2.615817	-27.566350	-2.615817	-0.233623	-109.910343
7.250000	-0.236786	-110.525432	-27.521952	-2.978657	-27.521952	-2.978657	-0.236909	-110.563333
7.300000	-0.240086	-111.177841	-27.477545	-3.341116	-27.477545	-3.341116	-0.240210	-111.215961
7.350000	-0.243457	-111.828442	-27.432198	-3.701663	-27.432198	-3.701663	-0.243583	-111.866782
7.400000	-0.246838	-112.478870	-27.386964	-4.062076	-27.386964	-4.062076	-0.246965	-112.517431
7.450000	-0.250299	-113.127394	-27.340632	-4.421008	-27.340632	-4.421008	-0.250428	-113.166177
7.500000	-0.253761	-113.775919	-27.294545	-4.779939	-27.294545	-4.779939	-0.253892	-113.814923
7.550000	-0.257313	-114.422461	-27.247200	-5.137933	-27.247200	-5.137933	-0.257445	-114.461689
7.600000	-0.260867	-115.069004	-27.200111	-5.495926	-27.200111	-5.495926	-0.261000	-115.108455
7.650000	-0.264503	-115.713818	-27.151863	-5.853675	-27.151863	-5.853675	-0.264638	-115.753494
7.700000	-0.268149	-116.358476	-27.103755	-6.211401	-27.103755	-6.211401	-0.268285	-116.398376
7.750000	-0.271872	-117.001644	-27.054602	-6.569456	-27.054602	-6.569456	-0.272010	-117.041770
7.800000	-0.275611	-117.644515	-27.005465	-6.927576	-27.005465	-6.927576	-0.275751	-117.684867
7.850000	-0.279422	-118.286120	-26.955411	-7.286470	-26.955411	-7.286470	-0.279563	-118.326701
7.900000	-0.283256	-118.927305	-26.905247	-7.645623	-26.905247	-7.645623	-0.283399	-118.968113
7.950000	-0.287155	-119.567433	-26.854301	-8.005873	-26.854301	-8.005873	-0.287300	-119.608471
8.000000	-0.291087	-120.207034	-26.803120	-8.366672	-26.803120	-8.366672	-0.291233	-120.248302
8.050000	-0.295076	-120.845772	-26.751299	-8.728770	-26.751299	-8.728770	-0.295223	-120.887272
8.100000	-0.299106	-121.483894	-26.699118	-9.091794	-26.699118	-9.091794	-0.299255	-121.525626
8.150000	-0.303185	-122.121329	-26.646446	-9.456202	-26.646446	-9.456202	-0.303336	-122.163295
8.200000	-0.307315	-122.758079	-26.593291	-9.821992	-26.593291	-9.821992	-0.307467	-122.800279
8.250000	-0.311487	-123.394301	-26.539795	-10.189141	-26.539795	-10.189141	-0.311641	-123.436737
8.300000	-0.315717	-124.029786	-26.485699	-10.558191	-26.485699	-10.558191	-0.315873	-124.072459
8.350000	-0.319983	-124.664887	-26.431411	-10.928477	-26.431411	-10.928477	-0.320140	-124.707798
8.400000	-0.324316	-125.299218	-26.376412	-11.301231	-26.376412	-11.301231	-0.324475	-125.342369
8.450000	-0.328675	-125.933289	-26.321370	-11.675009	-26.321370	-11.675009	-0.328837	-125.976681
8.500000	-0.333112	-126.566580	-26.265511	-12.051857	-26.265511	-12.051857	-0.333275	-126.610214
8.550000	-0.337567	-127.199716	-26.209754	-12.429442	-26.209754	-12.429442	-0.337732	-127.243593
8.600000	-0.342109	-127.832080	-26.153083	-12.810714	-26.153083	-12.810714	-0.342275	-127.876203
8.650000	-0.346661	-128.464376	-26.096654	-13.192378	-26.096654	-13.192378	-0.346829	-128.508745
8.700000	-0.351308	-129.095930	-26.039220	-13.578346	-26.039220	-13.578346	-0.351478	-129.140547
8.750000	-0.355958	-129.727484	-25.982163	-13.964314	-25.982163	-13.964314	-0.356130	-129.772350
8.800000	-0.360713	-130.358346	-25.924017	-14.355188	-25.924017	-14.355188	-0.360887	-130.403465
8.850000	-0.365470	-130.989209	-25.866257	-14.746062	-25.866257	-14.746062	-0.365646	-131.034579
8.900000	-0.370324	-131.619549	-25.807570	-15.141569	-25.807570	-15.141569	-0.370502	-131.665174
8.950000	-0.375190	-132.249841	-25.749158	-15.537498	-25.749158	-15.537498	-0.375369	-132.295722
9.000000	-0.380145	-132.879760	-25.689973	-15.937715	-25.689973	-15.937715	-0.380326	-132.925899
9.050000	-0.385120	-133.509604	-25.630958	-16.338788	-25.630958	-16.338788	-0.385303	-133.556003
9.100000	-0.390177	-134.139207	-25.571319	-16.743744	-25.571319	-16.743744	-0.390362	-134.185868
9.150000	-0.395262	-134.768729	-25.511747	-17.149994	-25.511747	-17.149994	-0.395449	-134.815653
9.200000	-0.400421	-135.398121	-25.451693	-17.559680	-25.451693	-17.559680	-0.400610	-135.445311
9.250000	-0.405618	-136.027449	-25.391610	-17.971083	-25.391610	-17.971083	-0.405809	-136.074905
9.300000	-0.410880	-136.656738	-25.331176	-18.385451	-25.331176	-18.385451	-0.411072	-136.704464
9.350000	-0.416189	-137.286000	-25.270619	-18.801936	-25.270619	-18.801936	-0.416384	-137.333998
9.400000	-0.421555	-137.915296	-25.209839	-19.220903	-25.209839	-19.220903	-0.421751	-137.963567
9.450000	-0.426977	-138.544625	-25.148843	-19.642351	-25.148843	-19.642351	-0.427175	-138.593172
9.500000	-0.432447	-139.174038	-25.087743	-20.065800	-25.087743	-20.065800	-0.432647	-139.222862
9.550000	-0.437983	-139.803569	-25.026335	-20.492052	-25.026335	-20.492052	-0.438185	-139.852674
9.600000	-0.443558	-140.433213	-24.964938	-20.919841	-24.964938	-20.919841	-0.443762	-140.482599
9.650000	-0.449208	-141.063082	-24.903138	-21.350705	-24.903138	-21.350705	-0.449415	-141.112754
9.700000	-0.454889	-141.693071	-24.841461	-21.782665	-24.841461	-21.782665	-0.455097	-141.743029
9.750000	-0.460654	-142.323419	-24.779284	-22.217918	-24.779284	-22.217918	-0.460865	-142.373667
9.800000	-0.466441	-142.953871	-24.717338	-22.653862	-24.717338	-22.653862	-0.466653	-143.004409
9.850000	-0.472321	-143.584839	-24.654788	-23.093261	-24.654788	-23.093261	-0.472536	-143.635673
9.900000	-0.478215	-144.215872	-24.592579	-23.532983	-24.592579	-23.532983	-0.478431	-144.267001
9.950000	-0.484211	-144.847606	-24.529653	-23.976268	-24.529653	-23.976268	-0.484429	-144.899037
10.000000	-0.490211	-145.479341	-24.467179	-24.419553	-24.467179	-24.419553	-0.490431	-145.531072
