! freq	dB(S11)	phase(S11)	dB(S12)	phase(S12)	
!     	dB(S21)	phase(S21)	dB(S22)	phase(S22)	
!S-par simulation data
#  GHz  S  DB  R 50
0.000000	-90.164527	0.000000	-0.000270	0.000000	-0.000270	0.000000	-90.164527	0.000000
0.050000	-59.662953	-89.242344	-0.000385	-0.849240	-0.000385	-0.849240	-59.662440	-89.240559
0.100000	-53.644833	-91.065237	-0.000727	-1.698229	-0.000727	-1.698229	-53.644361	-91.061601
0.150000	-50.123525	-92.303339	-0.001280	-2.546739	-0.001280	-2.546739	-50.123110	-92.298034
0.200000	-47.626083	-93.385286	-0.002021	-3.394587	-0.002021	-3.394587	-47.625728	-93.378467
0.250000	-45.691151	-94.393858	-0.002932	-4.241579	-0.002932	-4.241579	-45.690850	-94.385656
0.300000	-44.113049	-95.365544	-0.003968	-5.087702	-0.003968	-5.087702	-44.112793	-95.356033
0.350000	-42.782310	-96.311767	-0.005109	-5.932879	-0.005109	-5.932879	-42.782088	-96.300988
0.400000	-41.633505	-97.240989	-0.006326	-6.777112	-0.006326	-6.777112	-41.633308	-97.228955
0.450000	-40.624381	-98.158535	-0.007593	-7.620434	-0.007593	-7.620434	-40.624201	-98.145241
0.500000	-39.726037	-99.067943	-0.008891	-8.462904	-0.008891	-8.462904	-39.725869	-99.053372
0.550000	-38.917825	-99.971621	-0.010202	-9.304600	-0.010202	-9.304600	-38.917663	-99.955750
0.600000	-38.184472	-100.871232	-0.011512	-10.145606	-0.011512	-10.145606	-38.184314	-100.854037
0.650000	-37.514366	-101.767929	-0.012811	-10.986011	-0.012811	-10.986011	-37.514211	-101.749385
0.700000	-36.898474	-102.662520	-0.014093	-11.825902	-0.014093	-11.825902	-36.898320	-102.642602
0.750000	-36.329629	-103.555570	-0.015353	-12.665360	-0.015353	-12.665360	-36.329475	-103.534253
0.800000	-35.802055	-104.447477	-0.016588	-13.504461	-0.016588	-13.504461	-35.801901	-104.424738
0.850000	-35.311028	-105.338524	-0.017798	-14.343273	-0.017798	-14.343273	-35.310874	-105.314339
0.900000	-34.852639	-106.228913	-0.018982	-15.181858	-0.018982	-15.181858	-34.852484	-106.203258
0.950000	-34.423613	-107.118790	-0.020142	-16.020267	-0.020142	-16.020267	-34.423458	-107.091641
1.000000	-34.021189	-108.008260	-0.021279	-16.858549	-0.021279	-16.858549	-34.021033	-107.979593
1.050000	-33.643009	-108.897405	-0.022395	-17.696742	-0.022395	-17.696742	-33.642854	-108.867196
1.100000	-33.287053	-109.786285	-0.023492	-18.534882	-0.023492	-18.534882	-33.286898	-109.754508
1.150000	-32.951572	-110.674951	-0.024572	-19.373000	-0.024572	-19.373000	-32.951417	-110.641580
1.200000	-32.635046	-111.563445	-0.025637	-20.211120	-0.025637	-20.211120	-32.634893	-111.528452
1.250000	-32.336148	-112.451805	-0.026689	-21.049266	-0.026689	-21.049266	-32.335997	-112.415162
1.300000	-32.054004	-113.340064	-0.027730	-21.887459	-0.027730	-21.887459	-32.053854	-113.301740
1.350000	-31.787292	-114.228265	-0.028762	-22.725717	-0.028762	-22.725717	-31.787144	-114.188229
1.400000	-31.535099	-115.116445	-0.029786	-23.564053	-0.029786	-23.564053	-31.534954	-115.074663
1.450000	-31.296616	-116.004644	-0.030803	-24.402482	-0.030803	-24.402482	-31.296473	-115.961082
1.500000	-31.071119	-116.892905	-0.031816	-25.241016	-0.031816	-25.241016	-31.070980	-116.847526
1.550000	-30.857964	-117.781274	-0.032825	-26.079666	-0.032825	-26.079666	-30.857830	-117.734040
1.600000	-30.656574	-118.669803	-0.033831	-26.918444	-0.033831	-26.918444	-30.656444	-118.620673
1.650000	-30.466430	-119.558547	-0.034835	-27.757358	-0.034835	-27.757358	-30.466305	-119.507478
1.700000	-30.287068	-120.447566	-0.035838	-28.596419	-0.035838	-28.596419	-30.286948	-120.394513
1.750000	-30.118071	-121.336925	-0.036841	-29.435635	-0.036841	-29.435635	-30.117957	-121.281841
1.800000	-29.959063	-122.226697	-0.037844	-30.275017	-0.037844	-30.275017	-29.958957	-122.169530
1.850000	-29.809710	-123.116957	-0.038847	-31.114572	-0.038847	-31.114572	-29.809611	-123.057656
1.900000	-29.669709	-124.007790	-0.039851	-31.954311	-0.039851	-31.954311	-29.669618	-123.946297
1.950000	-29.538791	-124.899284	-0.040857	-32.794241	-0.040857	-32.794241	-29.538709	-124.835542
2.000000	-29.416717	-125.791537	-0.041864	-33.634372	-0.041864	-33.634372	-29.416645	-125.725481
2.050000	-29.303273	-126.684652	-0.042874	-34.474712	-0.042874	-34.474712	-29.303211	-126.616217
2.100000	-29.198271	-127.578740	-0.043886	-35.315272	-0.043886	-35.315272	-29.198221	-127.507855
2.150000	-29.101547	-128.473920	-0.044900	-36.156060	-0.044900	-36.156060	-29.101510	-128.400512
2.200000	-29.012959	-129.370321	-0.045917	-36.997085	-0.045917	-36.997085	-29.012935	-129.294310
2.250000	-28.932385	-130.268078	-0.046937	-37.838358	-0.046937	-37.838358	-28.932376	-130.189382
2.300000	-28.859725	-131.167339	-0.047960	-38.679887	-0.047960	-38.679887	-28.859731	-131.085868
2.350000	-28.794895	-132.068259	-0.048986	-39.521684	-0.048986	-39.521684	-28.794919	-131.983920
2.400000	-28.737834	-132.971007	-0.050016	-40.363758	-0.050016	-40.363758	-28.737876	-132.883699
2.450000	-28.688494	-133.875761	-0.051049	-41.206120	-0.051049	-41.206120	-28.688557	-133.785379
2.500000	-28.646850	-134.782714	-0.052086	-42.048779	-0.052086	-42.048779	-28.646935	-134.689145
2.550000	-28.613222	-135.692187	-0.053128	-42.891761	-0.053128	-42.891761	-28.613331	-135.595305
2.600000	-28.587294	-136.604308	-0.054173	-43.735063	-0.054173	-43.735063	-28.587429	-136.503984
2.650000	-28.569093	-137.519318	-0.055224	-44.578697	-0.055224	-44.578697	-28.569257	-137.415414
2.700000	-28.558663	-138.437476	-0.056279	-45.422674	-0.056279	-45.422674	-28.558858	-138.329845
2.750000	-28.556068	-139.359061	-0.057339	-46.267005	-0.057339	-46.267005	-28.556297	-139.247545
2.800000	-28.561390	-140.284375	-0.058405	-47.111701	-0.058405	-47.111701	-28.561655	-140.168805
2.850000	-28.574730	-141.213746	-0.059477	-47.956775	-0.059477	-47.956775	-28.575036	-141.093942
2.900000	-28.596211	-142.147528	-0.060555	-48.802237	-0.060555	-48.802237	-28.596562	-142.023295
2.950000	-28.625979	-143.086110	-0.061640	-49.648099	-0.061640	-49.648099	-28.626378	-142.957238
3.000000	-28.664200	-144.029912	-0.062733	-50.494375	-0.062733	-50.494375	-28.664653	-143.896175
3.050000	-28.711067	-144.979396	-0.063833	-51.341074	-0.063833	-51.341074	-28.711579	-144.840552
3.100000	-28.766798	-145.935068	-0.064941	-52.188210	-0.064941	-52.188210	-28.767375	-145.790853
3.150000	-28.831640	-146.897487	-0.066059	-53.035795	-0.066059	-53.035795	-28.832289	-146.747615
3.200000	-28.905872	-147.867268	-0.067186	-53.883841	-0.067186	-53.883841	-28.906601	-147.711428
3.250000	-28.989805	-148.845093	-0.068324	-54.732359	-0.068324	-54.732359	-28.990623	-148.682949
3.300000	-29.083788	-149.831720	-0.069473	-55.581363	-0.069473	-55.581363	-29.084704	-149.662905
3.350000	-29.188211	-150.827997	-0.070634	-56.430864	-0.070634	-56.430864	-29.189237	-150.652108
3.400000	-29.303509	-151.834873	-0.071808	-57.280874	-0.071808	-57.280874	-29.304657	-151.651470
3.450000	-29.430166	-152.853416	-0.072996	-58.131406	-0.072996	-58.131406	-29.431453	-152.662014
3.500000	-29.568725	-153.884832	-0.074199	-58.982472	-0.074199	-58.982472	-29.570167	-153.684900
3.550000	-29.719791	-154.930492	-0.075418	-59.834084	-0.075418	-59.834084	-29.721408	-154.721441
3.600000	-29.884041	-155.991961	-0.076653	-60.686253	-0.076653	-60.686253	-29.885858	-155.773138
3.650000	-30.062234	-157.071031	-0.077907	-61.538993	-0.077907	-61.538993	-30.064277	-156.841710
3.700000	-30.255224	-158.169771	-0.079179	-62.392314	-0.079179	-62.392314	-30.257525	-157.929142
3.750000	-30.463968	-159.290577	-0.080473	-63.246229	-0.080473	-63.246229	-30.466566	-159.037733
3.800000	-30.690063	-160.437484	-0.081789	-64.100775	-0.081789	-64.100775	-30.693003	-160.171354
3.850000	-30.934254	-161.612898	-0.083128	-64.955939	-0.083128	-64.955939	-30.937592	-161.332314
3.900000	-31.197941	-162.820811	-0.084492	-65.811732	-0.084492	-65.811732	-31.201743	-162.524445
3.950000	-31.482723	-164.065990	-0.085882	-66.668165	-0.085882	-66.668165	-31.487069	-163.752326
4.000000	-31.790432	-165.354185	-0.087300	-67.525249	-0.087300	-67.525249	-31.795420	-165.021479
4.050000	-32.123179	-166.692388	-0.088747	-68.382995	-0.088747	-68.382995	-32.128931	-166.338626
4.100000	-32.483413	-168.089191	-0.090224	-69.241413	-0.090224	-69.241413	-32.490081	-167.712029
4.150000	-32.873984	-169.555267	-0.091735	-70.100514	-0.091735	-70.100514	-32.881760	-169.151959
4.200000	-33.298236	-171.104031	-0.093279	-70.960307	-0.093279	-70.960307	-33.307367	-170.671338
4.250000	-33.760113	-172.752575	-0.094860	-71.820804	-0.094860	-71.820804	-33.770918	-172.286649
4.300000	-34.264296	-174.522993	-0.096478	-72.682012	-0.096478	-72.682012	-34.277197	-174.019224
4.350000	-34.816379	-176.444316	-0.098136	-73.543942	-0.098136	-73.543942	-34.831940	-175.897144
4.400000	-35.423076	-178.555387	-0.099836	-74.406603	-0.099836	-74.406603	-35.442071	-177.958055
4.450000	-36.092477	179.090764	-0.101580	-75.270003	-0.101580	-75.270003	-36.115985	179.746500
4.500000	-36.834313	176.420100	-0.103369	-76.134151	-0.103369	-76.134151	-36.863880	177.144308
4.550000	-37.660173	173.326700	-0.105206	-76.999055	-0.105206	-76.999055	-37.698068	174.131554
4.600000	-38.583428	169.655042	-0.107093	-77.864722	-0.107093	-77.864722	-38.633085	170.554796
4.650000	-39.618264	165.170858	-0.109032	-78.731160	-0.109032	-78.731160	-39.685019	166.180713
4.700000	-40.776118	159.514082	-0.111025	-79.598376	-0.111025	-79.598376	-40.868449	160.645715
4.750000	-42.055174	152.130223	-0.113074	-80.466377	-0.113074	-80.466377	-42.186542	153.378092
4.800000	-43.412750	142.206236	-0.115183	-81.335168	-0.115183	-81.335168	-43.603153	143.511884
4.850000	-44.704925	128.757486	-0.117352	-82.204756	-0.117352	-82.204756	-44.976855	129.939685
4.900000	-45.609268	111.266901	-0.119585	-83.075145	-0.119585	-83.075145	-45.964430	111.967145
4.950000	-45.700624	91.165580	-0.121884	-83.946342	-0.121884	-83.946342	-46.083509	91.037508
5.000000	-44.862213	72.182901	-0.124252	-84.818349	-0.124252	-84.818349	-45.192074	71.328188
5.050000	-43.433721	57.270796	-0.126693	-85.691207	-0.126693	-85.691207	-43.681079	56.102141
5.100000	-41.855851	46.253045	-0.129207	-86.564885	-0.129207	-86.564885	-42.035313	45.034947
5.150000	-40.327445	38.111798	-0.131798	-87.439384	-0.131798	-87.439384	-40.459288	36.953607
5.200000	-38.915033	31.935455	-0.134467	-88.314708	-0.134467	-88.314708	-39.014576	30.869335
5.250000	-37.628729	27.088409	-0.137218	-89.190859	-0.137218	-89.190859	-37.706123	26.116092
5.300000	-36.459244	23.155723	-0.140052	-90.067837	-0.140052	-90.067837	-36.521062	22.268878
5.350000	-35.392373	19.868120	-0.142973	-90.945644	-0.142973	-90.945644	-35.442925	19.056163
5.400000	-34.414073	17.047919	-0.145982	-91.824281	-0.145982	-91.824281	-34.456255	16.300729
5.450000	-33.511974	14.574993	-0.149084	-92.703746	-0.149084	-92.703746	-33.547784	13.883711
5.500000	-32.675624	12.366010	-0.152279	-93.584040	-0.152279	-93.584040	-32.706477	11.723130
5.550000	-31.896322	10.361721	-0.155572	-94.465160	-0.155572	-94.465160	-31.923244	9.760959
5.600000	-31.166844	8.519025	-0.158964	-95.347106	-0.158964	-95.347106	-31.190598	7.955130
5.650000	-30.481180	6.805918	-0.162459	-96.229875	-0.162459	-96.229875	-30.502342	6.274492
5.700000	-29.834305	5.198191	-0.166059	-97.113463	-0.166059	-97.113463	-29.853318	4.695530
5.750000	-29.221988	3.677220	-0.169766	-97.997867	-0.169766	-97.997867	-29.239199	3.200191
5.800000	-28.640645	2.228468	-0.173584	-98.883083	-0.173584	-98.883083	-28.656330	1.774399
5.850000	-28.087944	0.836119	-0.177505	-99.769036	-0.177505	-99.769036	-28.102321	0.402887
5.900000	-27.559675	-0.499325	-0.181553	-100.655869	-0.181553	-100.655869	-27.572927	-0.913901
5.950000	-27.054454	-1.790985	-0.185719	-101.543497	-0.185719	-101.543497	-27.066728	-2.188610
6.000000	-26.570310	-3.044906	-0.190006	-102.431915	-0.190006	-102.431915	-26.581729	-3.427067
6.050000	-26.105519	-4.266081	-0.194417	-103.321113	-0.194417	-103.321113	-26.116185	-4.634085
6.100000	-25.658567	-5.458673	-0.198954	-104.211084	-0.198954	-104.211084	-25.668566	-5.813670
6.150000	-25.228119	-6.626174	-0.203620	-105.101821	-0.203620	-105.101821	-25.237524	-6.969185
6.200000	-24.812988	-7.771536	-0.208417	-105.993312	-0.208417	-105.993312	-24.821863	-8.103467
6.250000	-24.412121	-8.897270	-0.213348	-106.885549	-0.213348	-106.885549	-24.420519	-9.218933
6.300000	-24.024479	-10.005188	-0.218419	-107.778537	-0.218419	-107.778537	-24.032447	-10.317323
6.350000	-23.649320	-11.097546	-0.223628	-108.672249	-0.223628	-108.672249	-23.656899	-11.400804
6.400000	-23.285878	-12.175927	-0.228978	-109.566672	-0.228978	-109.566672	-23.293104	-12.470896
6.450000	-22.933463	-13.241707	-0.234472	-110.461795	-0.234472	-110.461795	-22.940366	-13.528922
6.500000	-22.591446	-14.296088	-0.240111	-111.357604	-0.240111	-111.357604	-22.598054	-14.576033
6.550000	-22.259256	-15.340124	-0.245898	-112.254085	-0.245898	-112.254085	-22.265594	-15.613241
6.600000	-21.936373	-16.374741	-0.251836	-113.151226	-0.251836	-113.151226	-21.942463	-16.641434
6.650000	-21.622320	-17.400758	-0.257926	-114.049010	-0.257926	-114.049010	-21.628181	-17.661398
6.700000	-21.316660	-18.418901	-0.264170	-114.947423	-0.264170	-114.947423	-21.322309	-18.673827
6.750000	-21.018991	-19.429813	-0.270570	-115.846448	-0.270570	-115.846448	-21.024445	-19.679339
6.800000	-20.728943	-20.434069	-0.277128	-116.746069	-0.277128	-116.746069	-20.734215	-20.678484
6.850000	-20.446174	-21.432184	-0.283847	-117.646270	-0.283847	-117.646270	-20.451276	-21.671754
6.900000	-20.170346	-22.424558	-0.290728	-118.547037	-0.290728	-118.547037	-20.175292	-22.659534
6.950000	-19.901171	-23.411620	-0.297775	-119.448353	-0.297775	-119.448353	-19.905970	-23.642234
7.000000	-19.638398	-24.393799	-0.304986	-120.350192	-0.304986	-120.350192	-19.643060	-24.620264
7.050000	-19.381773	-25.371431	-0.312364	-121.252535	-0.312364	-121.252535	-19.386307	-25.593944
7.100000	-19.130940	-26.344474	-0.319924	-122.155404	-0.319924	-122.155404	-19.135354	-26.563237
7.150000	-18.885939	-27.313948	-0.327637	-123.058690	-0.327637	-123.058690	-18.890240	-27.529116
7.200000	-18.646418	-28.279691	-0.335521	-123.962420	-0.335521	-123.962420	-18.650613	-28.491425
7.250000	-18.412185	-29.241928	-0.343575	-124.866573	-0.343575	-124.866573	-18.416280	-29.450383
7.300000	-18.183057	-30.200868	-0.351802	-125.771128	-0.351802	-125.771128	-18.187058	-30.406185
7.350000	-17.958865	-31.156698	-0.360202	-126.676062	-0.360202	-126.676062	-17.962777	-31.359013
7.400000	-17.739448	-32.109591	-0.368776	-127.581354	-0.368776	-127.581354	-17.743277	-32.309029
7.450000	-17.524657	-33.059704	-0.377525	-128.486981	-0.377525	-128.486981	-17.528406	-33.256384
7.500000	-17.314349	-34.007180	-0.386448	-129.392919	-0.386448	-129.392919	-17.318023	-34.201216
7.550000	-17.108366	-34.952048	-0.395555	-130.299157	-0.395555	-130.299157	-17.111969	-35.143551
7.600000	-16.906613	-35.894542	-0.404837	-131.205658	-0.404837	-131.205658	-16.910148	-36.083612
7.650000	-16.708970	-36.834772	-0.414295	-132.112397	-0.414295	-132.112397	-16.712442	-37.021503
7.700000	-16.515325	-37.772837	-0.423929	-133.019351	-0.423929	-133.019351	-16.518735	-37.957320
7.750000	-16.325569	-38.708830	-0.433739	-133.926495	-0.433739	-133.926495	-16.328922	-38.891150
7.800000	-16.139602	-39.642835	-0.443724	-134.833804	-0.443724	-134.833804	-16.142899	-39.823074
7.850000	-15.957327	-40.574929	-0.453885	-135.741253	-0.453885	-135.741253	-15.960572	-40.753164
7.900000	-15.778654	-41.505183	-0.464220	-136.648819	-0.464220	-136.648819	-15.781848	-41.681488
7.950000	-15.603498	-42.433829	-0.474714	-137.556468	-0.474714	-137.556468	-15.606644	-42.608268
8.000000	-15.431765	-43.360602	-0.485395	-138.464192	-0.485395	-138.464192	-15.434865	-43.533248
8.050000	-15.263384	-44.285710	-0.496249	-139.371957	-0.496249	-139.371957	-15.266440	-44.456628
8.100000	-15.098282	-45.209202	-0.507274	-140.279737	-0.507274	-140.279737	-15.101296	-45.378453
8.150000	-14.936389	-46.131104	-0.518471	-141.187508	-0.518471	-141.187508	-14.939363	-46.298748
8.200000	-14.777640	-47.051458	-0.529838	-142.095242	-0.529838	-142.095242	-14.780576	-47.217552
8.250000	-14.621970	-47.970314	-0.541372	-143.002916	-0.541372	-143.002916	-14.624868	-48.134912
8.300000	-14.469316	-48.887702	-0.553073	-143.910504	-0.553073	-143.910504	-14.472178	-49.050856
8.350000	-14.319620	-49.803650	-0.564937	-144.817981	-0.564937	-144.817981	-14.322448	-49.965410
8.400000	-14.172827	-50.718179	-0.576963	-145.725322	-0.576963	-145.725322	-14.175622	-50.878593
8.450000	-14.028883	-51.631309	-0.589149	-146.632504	-0.589149	-146.632504	-14.031647	-51.790424
8.500000	-13.887737	-52.543055	-0.601492	-147.539500	-0.601492	-147.539500	-13.890471	-52.700915
8.550000	-13.749341	-53.453429	-0.613991	-148.446289	-0.613991	-148.446289	-13.752045	-53.610078
8.600000	-13.613648	-54.362440	-0.626643	-149.352844	-0.626643	-149.352844	-13.616324	-54.517918
8.650000	-13.480614	-55.270092	-0.639445	-150.259144	-0.639445	-150.259144	-13.483263	-55.424442
8.700000	-13.350196	-56.176389	-0.652394	-151.165164	-0.652394	-151.165164	-13.352819	-56.329648
8.750000	-13.222354	-57.081328	-0.665488	-152.070883	-0.665488	-152.070883	-13.224951	-57.233535
8.800000	-13.097063	-57.984878	-0.678726	-152.976269	-0.678726	-152.976269	-13.099636	-58.136069
8.850000	-12.974273	-58.887059	-0.692101	-153.881308	-0.692101	-153.881308	-12.976822	-59.037271
8.900000	-12.853947	-59.787861	-0.705612	-154.785978	-0.705612	-154.785978	-12.856474	-59.937128
8.950000	-12.736051	-60.687273	-0.719253	-155.690259	-0.719253	-155.690259	-12.738556	-60.835628
9.000000	-12.620552	-61.585277	-0.733022	-156.594128	-0.733022	-156.594128	-12.623036	-61.732753
9.050000	-12.507417	-62.481854	-0.746915	-157.497568	-0.746915	-157.497568	-12.509882	-62.628483
9.100000	-12.396617	-63.376984	-0.760928	-158.400558	-0.760928	-158.400558	-12.399062	-63.522797
9.150000	-12.288121	-64.270642	-0.775056	-159.303080	-0.775056	-159.303080	-12.290548	-64.415668
9.200000	-12.181901	-65.162801	-0.789297	-160.205115	-0.789297	-160.205115	-12.184310	-65.307070
9.250000	-12.077929	-66.053432	-0.803644	-161.106646	-0.803644	-161.106646	-12.080322	-66.196971
9.300000	-11.976180	-66.942501	-0.818095	-162.007657	-0.818095	-162.007657	-11.978557	-67.085339
9.350000	-11.876627	-67.829974	-0.832644	-162.908131	-0.832644	-162.908131	-11.878989	-67.972139
9.400000	-11.779257	-68.715796	-0.847287	-163.808047	-0.847287	-163.808047	-11.781604	-68.857313
9.450000	-11.684047	-69.599925	-0.862020	-164.707389	-0.862020	-164.707389	-11.686381	-69.740821
9.500000	-11.590963	-70.482336	-0.876837	-165.606152	-0.876837	-165.606152	-11.593284	-70.622636
9.550000	-11.499981	-71.362984	-0.891733	-166.504321	-0.891733	-166.504321	-11.502290	-71.502713
9.600000	-11.411182	-72.241659	-0.906706	-167.401830	-0.906706	-167.401830	-11.413480	-72.380843
9.650000	-11.324328	-73.118654	-0.921743	-168.298783	-0.921743	-168.298783	-11.326616	-73.257314
9.700000	-11.239512	-73.993738	-0.936844	-169.195110	-0.936844	-169.195110	-11.241791	-74.131897
9.750000	-11.156713	-74.866858	-0.952002	-170.090801	-0.952002	-170.090801	-11.158983	-75.004539
9.800000	-11.075911	-75.737958	-0.967214	-170.985848	-0.967214	-170.985848	-11.078173	-75.875183
9.850000	-10.997086	-76.606980	-0.982472	-171.880244	-0.982472	-171.880244	-10.999342	-76.743770
9.900000	-10.920219	-77.473864	-0.997771	-172.773982	-0.997771	-172.773982	-10.922469	-77.610240
9.950000	-10.845291	-78.338549	-1.013105	-173.667056	-1.013105	-173.667056	-10.847537	-78.474532
10.000000	-10.772284	-79.200971	-1.028470	-174.559464	-1.028470	-174.559464	-10.774526	-79.336580
