! freq	dB(S11)	phase(S11)	dB(S12)	phase(S12)	
!     	dB(S21)	phase(S21)	dB(S22)	phase(S22)	
!S-par simulation data
#  GHz  S  DB  R 50
0.000000	-0.000000	0.000000	-309.123794	180.000000	-309.123794	180.000000	-0.000000	0.000000
0.050000	-0.000110	-0.885567	-62.926772	88.958109	-62.926772	88.958109	-0.000114	-0.942454
0.100000	-0.000436	-1.770873	-56.914916	87.929662	-56.914916	87.929662	-0.000453	-1.884640
0.150000	-0.000966	-2.655677	-53.406030	86.923889	-53.406030	86.923889	-0.001005	-2.826306
0.200000	-0.001680	-3.539773	-50.922625	85.944012	-50.922625	85.944012	-0.001750	-3.767240
0.250000	-0.002567	-4.422929	-49.001317	84.990376	-49.001317	84.990376	-0.002677	-4.707193
0.300000	-0.003586	-5.305091	-47.434331	84.056726	-47.434331	84.056726	-0.003745	-5.646108
0.350000	-0.004719	-6.186130	-46.111614	83.139560	-46.111614	83.139560	-0.004935	-6.583838
0.400000	-0.005943	-7.065983	-44.967335	82.234555	-44.967335	82.234555	-0.006225	-7.520313
0.450000	-0.007235	-7.944620	-43.959151	81.338148	-43.959151	81.338148	-0.007589	-8.455490
0.500000	-0.008576	-8.822034	-43.058251	80.447630	-43.058251	80.447630	-0.009007	-9.389354
0.550000	-0.009947	-9.698237	-42.244157	79.561050	-42.244157	79.561050	-0.010462	-10.321909
0.600000	-0.011337	-10.573250	-41.501799	78.677064	-41.501799	78.677064	-0.011938	-11.253170
0.650000	-0.012732	-11.447101	-40.819762	77.794779	-40.819762	77.794779	-0.013424	-12.183161
0.700000	-0.014127	-12.319819	-40.189190	76.913627	-40.189190	76.913627	-0.014910	-13.111909
0.750000	-0.015513	-13.191434	-39.603071	76.033268	-39.603071	76.033268	-0.016389	-14.039438
0.800000	-0.016889	-14.061969	-39.055758	75.153515	-39.055758	75.153515	-0.017856	-14.965774
0.850000	-0.018250	-14.931445	-38.542632	74.274292	-38.542632	74.274292	-0.019309	-15.890936
0.900000	-0.019595	-15.799878	-38.059868	73.395587	-38.059868	73.395587	-0.020745	-16.814939
0.950000	-0.020925	-16.667276	-37.604260	72.517441	-37.604260	72.517441	-0.022164	-17.737791
1.000000	-0.022239	-17.533644	-37.173094	71.639920	-37.173094	71.639920	-0.023566	-18.659498
1.050000	-0.023538	-18.398981	-36.764051	70.763110	-36.764051	70.763110	-0.024950	-19.580058
1.100000	-0.024824	-19.263284	-36.375136	69.887111	-36.375136	69.887111	-0.026319	-20.499467
1.150000	-0.026096	-20.126541	-36.004617	69.012024	-36.004617	69.012024	-0.027673	-21.417714
1.200000	-0.027357	-20.988743	-35.650981	68.137957	-35.650981	68.137957	-0.029014	-22.334787
1.250000	-0.028608	-21.849872	-35.312901	67.265016	-35.312901	67.265016	-0.030342	-23.250670
1.300000	-0.029850	-22.709864	-34.989280	66.393364	-34.989280	66.393364	-0.031660	-24.165290
1.350000	-0.031085	-23.568745	-34.678997	65.523057	-34.678997	65.523057	-0.032968	-25.078678
1.400000	-0.032313	-24.426494	-34.381124	64.654194	-34.381124	64.654194	-0.034269	-25.990813
1.450000	-0.033536	-25.283089	-34.094827	63.786873	-34.094827	63.786873	-0.035563	-26.901668
1.500000	-0.034755	-26.138507	-33.819356	62.921188	-33.819356	62.921188	-0.036851	-27.811221
1.550000	-0.035971	-26.992724	-33.554035	62.057232	-33.554035	62.057232	-0.038136	-28.719445
1.600000	-0.037184	-27.845716	-33.298250	61.195092	-33.298250	61.195092	-0.039416	-29.626314
1.650000	-0.038395	-28.697458	-33.051443	60.334855	-33.051443	60.334855	-0.040695	-30.531802
1.700000	-0.039606	-29.547926	-32.813105	59.476603	-32.813105	59.476603	-0.041971	-31.435882
1.750000	-0.040815	-30.397095	-32.582770	58.620417	-32.582770	58.620417	-0.043246	-32.338529
1.800000	-0.042025	-31.244941	-32.360012	57.766373	-32.360012	57.766373	-0.044521	-33.239716
1.850000	-0.043236	-32.091440	-32.144437	56.914548	-32.144437	56.914548	-0.045797	-34.139417
1.900000	-0.044447	-32.936568	-31.935683	56.065013	-31.935683	56.065013	-0.047073	-35.037606
1.950000	-0.045660	-33.780301	-31.733416	55.217838	-31.733416	55.217838	-0.048350	-35.934260
2.000000	-0.046875	-34.622618	-31.537323	54.373093	-31.537323	54.373093	-0.049629	-36.829352
2.050000	-0.048092	-35.463494	-31.347119	53.530842	-31.347119	53.530842	-0.050909	-37.722860
2.100000	-0.049311	-36.302908	-31.162533	52.691150	-31.162533	52.691150	-0.052193	-38.614760
2.150000	-0.050532	-37.140839	-30.983317	51.854079	-30.983317	51.854079	-0.053479	-39.505029
2.200000	-0.051757	-37.977264	-30.809237	51.019689	-30.809237	51.019689	-0.054768	-40.393645
2.250000	-0.052985	-38.812165	-30.640073	50.188038	-30.640073	50.188038	-0.056061	-41.280587
2.300000	-0.054216	-39.645520	-30.475622	49.359182	-30.475622	49.359182	-0.057357	-42.165834
2.350000	-0.055451	-40.477311	-30.315691	48.533177	-30.315691	48.533177	-0.058657	-43.049365
2.400000	-0.056690	-41.307518	-30.160099	47.710075	-30.160099	47.710075	-0.059962	-43.931163
2.450000	-0.057933	-42.136124	-30.008675	46.889928	-30.008675	46.889928	-0.061272	-44.811208
2.500000	-0.059181	-42.963110	-29.861260	46.072785	-29.861260	46.072785	-0.062586	-45.689481
2.550000	-0.060433	-43.788388	-29.717760	45.258830	-29.717760	45.258830	-0.063905	-46.565889
2.600000	-0.061691	-44.612011	-29.577971	44.447977	-29.577971	44.447977	-0.065230	-47.440491
2.650000	-0.062954	-45.433964	-29.441756	43.640273	-29.441756	43.640273	-0.066561	-48.313273
2.700000	-0.064222	-46.254232	-29.308986	42.835760	-29.308986	42.835760	-0.067898	-49.184218
2.750000	-0.065496	-47.072800	-29.179537	42.034481	-29.179537	42.034481	-0.069242	-50.053314
2.800000	-0.066776	-47.889653	-29.053294	41.236475	-29.053294	41.236475	-0.070592	-50.920546
2.850000	-0.068063	-48.704779	-28.930144	40.441782	-28.930144	40.441782	-0.071949	-51.785903
2.900000	-0.069356	-49.518165	-28.809983	39.650439	-28.809983	39.650439	-0.073313	-52.649373
2.950000	-0.070656	-50.329797	-28.692707	38.862482	-28.692707	38.862482	-0.074685	-53.510944
3.000000	-0.071964	-51.139665	-28.578221	38.077947	-28.578221	38.077947	-0.076065	-54.370606
3.050000	-0.073279	-51.947758	-28.466432	37.296865	-28.466432	37.296865	-0.077453	-55.228349
3.100000	-0.074602	-52.754064	-28.357252	36.519271	-28.357252	36.519271	-0.078850	-56.084165
3.150000	-0.075933	-53.558573	-28.250595	35.745193	-28.250595	35.745193	-0.080256	-56.938046
3.200000	-0.077273	-54.361277	-28.146380	34.974662	-28.146380	34.974662	-0.081672	-57.789983
3.250000	-0.078622	-55.162167	-28.044528	34.207705	-28.044528	34.207705	-0.083097	-58.639970
3.300000	-0.079981	-55.961233	-27.944965	33.444349	-27.944965	33.444349	-0.084533	-59.488001
3.350000	-0.081349	-56.758469	-27.847617	32.684619	-27.847617	32.684619	-0.085979	-60.334070
3.400000	-0.082727	-57.553866	-27.752415	31.928540	-27.752415	31.928540	-0.087436	-61.178173
3.450000	-0.084115	-58.347420	-27.659292	31.176133	-27.659292	31.176133	-0.088905	-62.020306
3.500000	-0.085515	-59.139122	-27.568183	30.427420	-27.568183	30.427420	-0.090385	-62.860465
3.550000	-0.086926	-59.928969	-27.479024	29.682422	-27.479024	29.682422	-0.091878	-63.698648
3.600000	-0.088348	-60.716954	-27.391756	28.941157	-27.391756	28.941157	-0.093384	-64.534853
3.650000	-0.089782	-61.503074	-27.306319	28.203642	-27.306319	28.203642	-0.094902	-65.369078
3.700000	-0.091229	-62.287325	-27.222657	27.469894	-27.222657	27.469894	-0.096434	-66.201322
3.750000	-0.092689	-63.069703	-27.140715	26.739928	-27.140715	26.739928	-0.097980	-67.031587
3.800000	-0.094162	-63.850124	-27.060479	26.013922	-27.060479	26.013922	-0.099542	-67.859786
3.850000	-0.095650	-64.628666	-26.981855	25.291725	-26.981855	25.291725	-0.101118	-68.686006
3.900000	-0.097151	-65.405330	-26.904794	24.573347	-26.904794	24.573347	-0.102709	-69.510251
3.950000	-0.098667	-66.180112	-26.829247	23.858798	-26.829247	23.858798	-0.104317	-70.332522
4.000000	-0.100198	-66.953012	-26.755167	23.148087	-26.755167	23.148087	-0.105941	-71.152822
4.050000	-0.101745	-67.724032	-26.682507	22.441220	-26.682507	22.441220	-0.107581	-71.971157
4.100000	-0.103307	-68.493170	-26.611222	21.738202	-26.611222	21.738202	-0.109239	-72.787530
4.150000	-0.104886	-69.260427	-26.541269	21.039040	-26.541269	21.039040	-0.110915	-73.601946
4.200000	-0.106481	-70.025806	-26.472605	20.343735	-26.472605	20.343735	-0.112609	-74.414411
4.250000	-0.108094	-70.789308	-26.405188	19.652289	-26.405188	19.652289	-0.114322	-75.224932
4.300000	-0.109724	-71.550935	-26.338978	18.964704	-26.338978	18.964704	-0.116053	-76.033515
4.350000	-0.111373	-72.310690	-26.273935	18.280977	-26.273935	18.280977	-0.117805	-76.840168
4.400000	-0.113040	-73.068577	-26.210020	17.601108	-26.210020	17.601108	-0.119577	-77.644900
4.450000	-0.114726	-73.824600	-26.147196	16.925092	-26.147196	16.925092	-0.121369	-78.447718
4.500000	-0.116431	-74.578762	-26.085425	16.252925	-26.085425	16.252925	-0.123182	-79.248632
4.550000	-0.118156	-75.331069	-26.024671	15.584601	-26.024671	15.584601	-0.125017	-80.047653
4.600000	-0.119905	-76.081206	-25.964991	14.920776	-25.964991	14.920776	-0.126879	-80.844465
4.650000	-0.121676	-76.829419	-25.906279	14.260943	-25.906279	14.260943	-0.128763	-81.639324
4.700000	-0.123458	-77.576675	-25.848223	13.603096	-25.848223	13.603096	-0.130660	-82.433216
4.750000	-0.125274	-78.321062	-25.791336	12.951208	-25.791336	12.951208	-0.132594	-83.224210
4.800000	-0.127098	-79.064816	-25.734978	12.300633	-25.734978	12.300633	-0.134536	-84.014570
4.850000	-0.128961	-79.805409	-25.679776	11.656630	-25.679776	11.656630	-0.136521	-84.801755
4.900000	-0.130828	-80.545689	-25.624994	11.013277	-25.624994	11.013277	-0.138510	-85.588628
4.950000	-0.132740	-81.282523	-25.571343	10.377085	-25.571343	10.377085	-0.140547	-86.372065
5.000000	-0.134652	-82.019358	-25.518022	9.740893	-25.518022	9.740893	-0.142586	-87.155502
5.050000	-0.136615	-82.752473	-25.465792	9.112426	-25.465792	9.112426	-0.144678	-87.935256
5.100000	-0.138578	-83.485588	-25.413875	8.483959	-25.413875	8.483959	-0.146772	-88.715009
5.150000	-0.140589	-84.215334	-25.362884	7.862480	-25.362884	7.862480	-0.148917	-89.491451
5.200000	-0.142606	-84.944773	-25.312247	7.241636	-25.312247	7.241636	-0.151068	-90.267592
5.250000	-0.144667	-85.671188	-25.262390	6.627049	-25.262390	6.627049	-0.153268	-91.040783
5.300000	-0.146738	-86.396998	-25.212914	6.013713	-25.212914	6.013713	-0.155478	-91.813385
5.350000	-0.148852	-87.120124	-25.164086	5.405908	-25.164086	5.405908	-0.157734	-92.583392
5.400000	-0.150980	-87.842356	-25.115654	4.799948	-25.115654	4.799948	-0.160006	-93.352533
5.450000	-0.153147	-88.562238	-25.067757	4.198806	-25.067757	4.198806	-0.162320	-94.119424
5.500000	-0.155334	-89.280945	-25.020256	3.600075	-25.020256	3.600075	-0.164655	-94.885188
5.550000	-0.157557	-89.997629	-24.973193	3.005464	-24.973193	3.005464	-0.167029	-95.649033
5.600000	-0.159805	-90.712868	-24.926512	2.413796	-24.926512	2.413796	-0.169430	-96.411508
5.650000	-0.162084	-91.426405	-24.880191	1.825570	-24.880191	1.825570	-0.171865	-97.172383
5.700000	-0.164395	-92.138237	-24.834224	1.240786	-24.834224	1.240786	-0.174334	-97.931659
5.750000	-0.166733	-92.848677	-24.788553	0.658787	-24.788553	0.658787	-0.176832	-98.689642
5.800000	-0.169109	-93.557167	-24.743196	0.080687	-24.743196	0.080687	-0.179371	-99.445814
5.850000	-0.171507	-94.264565	-24.698088	-0.495257	-24.698088	-0.495257	-0.181934	-100.200985
5.900000	-0.173950	-94.969779	-24.653240	-1.066889	-24.653240	-1.066889	-0.184545	-100.954154
5.950000	-0.176410	-95.674191	-24.608610	-1.636964	-24.608610	-1.636964	-0.187174	-101.706597
6.000000	-0.178922	-96.376199	-24.564172	-2.202366	-24.564172	-2.202366	-0.189859	-102.456864
6.050000	-0.181446	-97.077684	-24.519938	-2.766772	-24.519938	-2.766772	-0.192557	-103.206665
6.100000	-0.184028	-97.776559	-24.475816	-3.326198	-24.475816	-3.326198	-0.195318	-103.954138
6.150000	-0.186618	-98.475179	-24.431899	-3.885150	-24.431899	-3.885150	-0.198086	-104.701388
6.200000	-0.189273	-99.170996	-24.388000	-4.438877	-24.388000	-4.438877	-0.200925	-105.446177
6.250000	-0.191929	-99.866813	-24.344322	-4.992604	-24.344322	-4.992604	-0.203764	-106.190966
6.300000	-0.194660	-100.559651	-24.300558	-5.540927	-24.300558	-5.540927	-0.206683	-106.933186
6.350000	-0.197391	-101.252490	-24.257014	-6.089251	-24.257014	-6.089251	-0.209603	-107.675406
6.400000	-0.200192	-101.942672	-24.213331	-6.632910	-24.213331	-6.632910	-0.212597	-108.415378
6.450000	-0.203000	-102.632612	-24.169835	-7.176146	-24.169835	-7.176146	-0.215599	-109.155145
6.500000	-0.205873	-103.320208	-24.126166	-7.715423	-24.126166	-7.715423	-0.218671	-109.892971
6.550000	-0.208760	-104.007334	-24.082637	-8.253907	-24.082637	-8.253907	-0.221757	-110.630408
6.600000	-0.211707	-104.692415	-24.038914	-8.789097	-24.038914	-8.789097	-0.224907	-111.366191
6.650000	-0.214675	-105.376814	-23.995275	-9.323187	-23.995275	-9.323187	-0.228079	-112.101423
6.700000	-0.217698	-106.059454	-23.951438	-9.854600	-23.951438	-9.854600	-0.231310	-112.835269
6.750000	-0.220749	-106.741214	-23.907614	-10.384674	-23.907614	-10.384674	-0.234571	-113.568423
6.800000	-0.223849	-107.421488	-23.863603	-10.912636	-23.863603	-10.912636	-0.237884	-114.300441
6.850000	-0.226985	-108.100701	-23.819524	-11.439089	-23.819524	-11.439089	-0.241234	-115.031649
6.900000	-0.230164	-108.778687	-23.775284	-11.963939	-23.775284	-11.963939	-0.244631	-115.761951
6.950000	-0.233387	-109.455446	-23.730886	-12.487186	-23.730886	-12.487186	-0.248074	-116.491348
7.000000	-0.236647	-110.131222	-23.686365	-13.009277	-23.686365	-13.009277	-0.251556	-117.220048
7.050000	-0.239958	-110.805623	-23.641586	-13.529750	-23.641586	-13.529750	-0.255093	-117.947772
7.100000	-0.243301	-111.479271	-23.596736	-14.049446	-23.596736	-14.049446	-0.258663	-118.674986
7.150000	-0.246703	-112.151413	-23.551520	-14.567591	-23.551520	-14.567591	-0.262296	-119.401180
7.200000	-0.250129	-112.823015	-23.506298	-15.085270	-23.506298	-15.085270	-0.265955	-120.127027
7.250000	-0.253625	-113.492997	-23.460594	-15.601548	-23.460594	-15.601548	-0.269686	-120.851835
7.300000	-0.257137	-114.162637	-23.414959	-16.117594	-23.414959	-16.117594	-0.273435	-121.576437
7.350000	-0.260727	-114.830564	-23.368722	-16.632478	-23.368722	-16.632478	-0.277267	-122.300008
7.400000	-0.264326	-115.498327	-23.322640	-17.147286	-23.322640	-17.147286	-0.281108	-123.023488
7.450000	-0.268013	-116.164302	-23.275829	-17.661255	-23.275829	-17.661255	-0.285042	-123.745974
7.500000	-0.271702	-116.830277	-23.229268	-18.175224	-23.229268	-18.175224	-0.288977	-124.468460
7.550000	-0.275487	-117.494408	-23.181849	-18.688765	-23.181849	-18.688765	-0.293015	-125.190016
7.600000	-0.279275	-118.158538	-23.134687	-19.202306	-23.134687	-19.202306	-0.297054	-125.911572
7.650000	-0.283153	-118.821078	-23.086728	-19.715902	-23.086728	-19.715902	-0.301189	-126.632421
7.700000	-0.287041	-119.483474	-23.038936	-20.229502	-23.038936	-20.229502	-0.305335	-127.353206
7.750000	-0.291014	-120.144516	-22.990420	-20.743558	-22.990420	-20.743558	-0.309569	-128.073484
7.800000	-0.295005	-120.805287	-22.941978	-21.257704	-22.941978	-21.257704	-0.313822	-128.793660
7.850000	-0.299074	-121.464926	-22.892893	-21.772620	-22.892893	-21.772620	-0.318157	-129.513505
7.900000	-0.303170	-122.124187	-22.843783	-22.287792	-22.843783	-22.287792	-0.322521	-130.233238
7.950000	-0.307336	-122.782518	-22.794123	-22.803963	-22.794123	-22.803963	-0.326958	-130.952789
8.000000	-0.311539	-123.440384	-22.744334	-23.320633	-22.744334	-23.320633	-0.331434	-131.672249
8.050000	-0.315804	-124.097505	-22.694096	-23.838442	-22.694096	-23.838442	-0.335975	-132.391651
8.100000	-0.320115	-124.754094	-22.643625	-24.357066	-22.643625	-24.357066	-0.340564	-133.111010
8.150000	-0.324482	-125.410104	-22.592809	-24.876887	-22.592809	-24.876887	-0.345211	-133.830408
8.200000	-0.328904	-126.065536	-22.541656	-25.397904	-22.541656	-25.397904	-0.349916	-134.549843
8.250000	-0.333373	-126.720536	-22.490268	-25.920092	-22.490268	-25.920092	-0.354670	-135.269386
8.300000	-0.337907	-127.374931	-22.438439	-26.443919	-22.438439	-26.443919	-0.359493	-135.989078
8.350000	-0.342481	-128.029023	-22.386488	-26.968812	-22.386488	-26.968812	-0.364356	-136.708918
8.400000	-0.347129	-128.682507	-22.333993	-27.495839	-22.333993	-27.495839	-0.369298	-137.429051
8.450000	-0.351808	-129.335794	-22.281492	-28.023756	-22.281492	-28.023756	-0.374272	-138.149342
8.500000	-0.356574	-129.988493	-22.228346	-28.554344	-22.228346	-28.554344	-0.379335	-138.870104
8.550000	-0.361360	-130.641082	-22.175309	-29.085579	-22.175309	-29.085579	-0.384421	-139.591004
8.600000	-0.366243	-131.293123	-22.121530	-29.620056	-22.121530	-29.620056	-0.389607	-140.312588
8.650000	-0.371139	-131.945120	-22.067975	-30.154881	-22.067975	-30.154881	-0.394806	-141.034257
8.700000	-0.376142	-132.596634	-22.013583	-30.693538	-22.013583	-30.693538	-0.400118	-141.756859
8.750000	-0.381149	-133.248149	-21.959529	-31.232196	-21.959529	-31.232196	-0.405432	-142.479460
8.800000	-0.386274	-133.899270	-21.904546	-31.775290	-21.904546	-31.775290	-0.410870	-143.203281
8.850000	-0.391402	-134.550390	-21.849910	-32.318384	-21.849910	-32.318384	-0.416311	-143.927101
8.900000	-0.396641	-135.201274	-21.794466	-32.865743	-21.794466	-32.865743	-0.421867	-144.652226
8.950000	-0.401893	-135.852136	-21.739269	-33.413490	-21.739269	-33.413490	-0.427437	-145.377470
9.000000	-0.407247	-136.502897	-21.683385	-33.965263	-21.683385	-33.965263	-0.433113	-146.104074
9.050000	-0.412624	-137.153637	-21.627652	-34.517840	-21.627652	-34.517840	-0.438813	-146.830951
9.100000	-0.418096	-137.804392	-21.571349	-35.074146	-21.571349	-35.074146	-0.444610	-147.559213
9.150000	-0.423600	-138.455151	-21.515102	-35.631694	-21.515102	-35.631694	-0.450442	-148.287936
9.200000	-0.429190	-139.106018	-21.458400	-36.192624	-21.458400	-36.192624	-0.456361	-149.018036
9.250000	-0.434823	-139.756938	-21.401659	-36.755244	-21.401659	-36.755244	-0.462326	-149.748825
9.300000	-0.440533	-140.408036	-21.344576	-37.320863	-21.344576	-37.320863	-0.468369	-150.480949
9.350000	-0.446297	-141.059262	-21.287360	-37.888624	-21.287360	-37.888624	-0.474470	-151.214027
9.400000	-0.452127	-141.710714	-21.229911	-38.458972	-21.229911	-38.458972	-0.480638	-151.948364
9.450000	-0.458023	-142.362393	-21.172235	-39.031907	-21.172235	-39.031907	-0.486874	-152.683959
9.500000	-0.463976	-143.014323	-21.114432	-39.607002	-21.114432	-39.607002	-0.493169	-153.420700
9.550000	-0.470006	-143.666605	-21.056305	-40.185120	-21.056305	-40.185120	-0.499543	-154.159047
9.600000	-0.476083	-144.319139	-20.998157	-40.764960	-20.998157	-40.764960	-0.505965	-154.898390
9.650000	-0.482248	-144.972176	-20.939586	-41.348243	-20.939586	-41.348243	-0.512478	-155.639726
9.700000	-0.488450	-145.625442	-20.881097	-41.932809	-20.881097	-41.932809	-0.519028	-156.381870
9.750000	-0.494751	-146.279391	-20.822080	-42.521223	-20.822080	-42.521223	-0.525681	-157.126441
9.800000	-0.501079	-146.933518	-20.763252	-43.110483	-20.763252	-43.110483	-0.532362	-157.871592
9.850000	-0.507519	-147.588536	-20.703782	-43.703977	-20.703782	-43.703977	-0.539156	-158.619646
9.900000	-0.513974	-148.243658	-20.644611	-44.297890	-20.644611	-44.297890	-0.545966	-159.368012
9.950000	-0.520553	-148.899907	-20.584675	-44.896409	-20.584675	-44.896409	-0.552903	-160.119806
10.000000	-0.527137	-149.556157	-20.525151	-45.494928	-20.525151	-45.494928	-0.559845	-160.871599
