! freq	dB(S11)	phase(S11)	dB(S12)	phase(S12)	
!     	dB(S21)	phase(S21)	dB(S22)	phase(S22)	
!S-par simulation data
#  GHz  S  DB  R 50
0.000000	-0.000000	0.000000	-340.844827	0.000000	-340.844827	0.000000	-0.000000	0.000000
0.050000	-0.000103	-0.833218	-72.412363	86.903317	-72.412363	86.903317	-0.000097	-0.758995
0.100000	-0.000406	-1.666189	-66.629564	86.280988	-66.629564	86.280988	-0.000384	-1.517756
0.150000	-0.000900	-2.498686	-63.206716	85.937191	-63.206716	85.937191	-0.000849	-2.276065
0.200000	-0.001564	-3.330519	-60.754513	85.488333	-60.754513	85.488333	-0.001474	-3.033744
0.250000	-0.002386	-4.161468	-58.842730	84.937380	-58.842730	84.937380	-0.002244	-3.790596
0.300000	-0.003329	-4.991491	-57.277060	84.325769	-57.277060	84.325769	-0.003124	-4.546586
0.350000	-0.004375	-5.820467	-55.952182	83.671196	-55.952182	83.671196	-0.004097	-5.301613
0.400000	-0.005502	-6.648347	-54.804651	82.987794	-54.804651	82.987794	-0.005140	-6.055643
0.450000	-0.006687	-7.475107	-53.793239	82.284498	-53.793239	82.284498	-0.006233	-6.808667
0.500000	-0.007913	-8.300747	-52.889647	81.567130	-52.889647	81.567130	-0.007359	-7.560697
0.550000	-0.009164	-9.125284	-52.073614	80.839615	-52.073614	80.839615	-0.008504	-8.311760
0.600000	-0.010427	-9.948743	-51.330133	80.104698	-51.330133	80.104698	-0.009657	-9.061890
0.650000	-0.011691	-10.771156	-50.647783	79.364355	-50.647783	79.364355	-0.010808	-9.811123
0.700000	-0.012950	-11.592555	-50.017672	78.620054	-50.017672	78.620054	-0.011953	-10.559495
0.750000	-0.014199	-12.412969	-49.432738	77.872911	-49.432738	77.872911	-0.013086	-11.307039
0.800000	-0.015433	-13.232425	-48.887283	77.123799	-48.887283	77.123799	-0.014206	-12.053784
0.850000	-0.016651	-14.050945	-48.376641	76.373415	-48.376641	76.373415	-0.015310	-12.799752
0.900000	-0.017851	-14.868545	-47.896946	75.622326	-47.896946	75.622326	-0.016399	-13.544962
0.950000	-0.019034	-15.685236	-47.444952	74.871007	-47.444952	74.871007	-0.017472	-14.289425
1.000000	-0.020200	-16.501025	-47.017916	74.119857	-47.017916	74.119857	-0.018531	-15.033149
1.050000	-0.021350	-17.315912	-46.613493	73.369222	-46.613493	73.369222	-0.019576	-15.776137
1.100000	-0.022484	-18.129895	-46.229663	72.619405	-46.229663	72.619405	-0.020609	-16.518386
1.150000	-0.023604	-18.942968	-45.864678	71.870674	-45.864678	71.870674	-0.021630	-17.259894
1.200000	-0.024712	-19.755119	-45.517008	71.123273	-45.517008	71.123273	-0.022640	-18.000652
1.250000	-0.025808	-20.566338	-45.185312	70.377423	-45.185312	70.377423	-0.023642	-18.740651
1.300000	-0.026894	-21.376566	-44.868523	69.633413	-44.868523	69.633413	-0.024635	-19.479845
1.350000	-0.027970	-22.185828	-44.565473	68.891364	-44.565473	68.891364	-0.025622	-20.218254
1.400000	-0.029039	-22.994107	-44.275224	68.151455	-44.275224	68.151455	-0.026602	-20.955862
1.450000	-0.030102	-23.801381	-43.996938	67.413855	-43.996938	67.413855	-0.027578	-21.692656
1.500000	-0.031158	-24.607632	-43.729859	66.678725	-43.729859	66.678725	-0.028549	-22.428617
1.550000	-0.032210	-25.412838	-43.473308	65.946221	-43.473308	65.946221	-0.029517	-23.163730
1.600000	-0.033258	-26.216979	-43.226666	65.216494	-43.226666	65.216494	-0.030481	-23.897978
1.650000	-0.034303	-27.020033	-42.989375	64.489690	-42.989375	64.489690	-0.031444	-24.631343
1.700000	-0.035344	-27.821582	-42.761826	63.767084	-42.761826	63.767084	-0.032404	-25.363487
1.750000	-0.036384	-28.622545	-42.541391	63.046127	-42.541391	63.046127	-0.033364	-26.095154
1.800000	-0.037423	-29.422096	-42.329484	62.329307	-42.329484	62.329307	-0.034322	-26.825675
1.850000	-0.038461	-30.220637	-42.124767	61.615442	-42.124767	61.615442	-0.035280	-27.555377
1.900000	-0.039498	-31.017922	-41.927371	60.905416	-41.927371	60.905416	-0.036238	-28.284057
1.950000	-0.040535	-31.813949	-41.736911	60.199229	-41.736911	60.199229	-0.037196	-29.011717
2.000000	-0.041573	-32.608891	-41.552685	59.496480	-41.552685	59.496480	-0.038155	-29.738495
2.050000	-0.042611	-33.402314	-41.375230	58.798543	-41.375230	58.798543	-0.039114	-30.464039
2.100000	-0.043650	-34.195068	-41.202594	58.102787	-41.202594	58.102787	-0.040075	-31.189040
2.150000	-0.044690	-34.986085	-41.036543	57.412719	-41.036543	57.412719	-0.041036	-31.912628
2.200000	-0.045733	-35.775787	-40.875990	56.727045	-40.875990	56.727045	-0.042000	-32.635148
2.250000	-0.046777	-36.564155	-40.720715	56.045894	-40.720715	56.045894	-0.042965	-33.356583
2.300000	-0.047824	-37.351171	-40.570512	55.369393	-40.570512	55.369393	-0.043932	-34.076918
2.350000	-0.048873	-38.136816	-40.425190	54.697670	-40.425190	54.697670	-0.044902	-34.796137
2.400000	-0.049925	-38.921075	-40.284565	54.030853	-40.284565	54.030853	-0.045874	-35.514226
2.450000	-0.050981	-39.703928	-40.148466	53.369070	-40.148466	53.369070	-0.046850	-36.231171
2.500000	-0.052040	-40.485361	-40.016732	52.712449	-40.016732	52.712449	-0.047828	-36.946956
2.550000	-0.053103	-41.265293	-39.889307	52.061353	-39.889307	52.061353	-0.048811	-37.661517
2.600000	-0.054171	-42.043770	-39.765944	51.415686	-39.765944	51.415686	-0.049797	-38.374889
2.650000	-0.055243	-42.820777	-39.646507	50.775575	-39.646507	50.775575	-0.050787	-39.087061
2.700000	-0.056319	-43.596300	-39.530863	50.141149	-39.530863	50.141149	-0.051781	-39.798018
2.750000	-0.057401	-44.370324	-39.418887	49.512536	-39.418887	49.512536	-0.052780	-40.507748
2.800000	-0.058489	-45.142836	-39.310459	48.889864	-39.310459	48.889864	-0.053784	-41.216238
2.850000	-0.059582	-45.913821	-39.205466	48.273262	-39.205466	48.273262	-0.054793	-41.923477
2.900000	-0.060681	-46.683267	-39.103796	47.662859	-39.103796	47.662859	-0.055808	-42.629451
2.950000	-0.061787	-47.451161	-39.005346	47.058782	-39.005346	47.058782	-0.056829	-43.334151
3.000000	-0.062900	-48.217492	-38.910014	46.461161	-38.910014	46.461161	-0.057856	-44.037564
3.050000	-0.064020	-48.982247	-38.817703	45.870125	-38.817703	45.870125	-0.058889	-44.739680
3.100000	-0.065147	-49.745416	-38.728320	45.285802	-38.728320	45.285802	-0.059929	-45.440487
3.150000	-0.066283	-50.506988	-38.641773	44.708321	-38.641773	44.708321	-0.060976	-46.139976
3.200000	-0.067427	-51.266952	-38.557975	44.137812	-38.557975	44.137812	-0.062031	-46.838136
3.250000	-0.068579	-52.025299	-38.476841	43.574403	-38.476841	43.574403	-0.063093	-47.534958
3.300000	-0.069740	-52.782019	-38.398290	43.018223	-38.398290	43.018223	-0.064164	-48.230433
3.350000	-0.070913	-53.536817	-38.322548	42.470718	-38.322548	42.470718	-0.065244	-48.924312
3.400000	-0.072096	-54.289899	-38.249300	41.931028	-38.249300	41.931028	-0.066334	-49.616765
3.450000	-0.073284	-55.042116	-38.177559	41.395362	-38.177559	41.395362	-0.067429	-50.308499
3.500000	-0.074489	-55.791739	-38.109065	40.871767	-38.109065	40.871767	-0.068539	-50.998072
3.550000	-0.075698	-56.540779	-38.041675	40.350946	-38.041675	40.350946	-0.069652	-51.687159
3.600000	-0.076927	-57.286911	-37.977629	39.843998	-37.977629	39.843998	-0.070783	-52.373817
3.650000	-0.078157	-58.032750	-37.914321	39.338483	-37.914321	39.338483	-0.071916	-53.060230
3.700000	-0.079411	-58.775365	-37.854428	38.848729	-37.854428	38.848729	-0.073070	-53.743942
3.750000	-0.080665	-59.517980	-37.794944	38.358975	-37.794944	38.358975	-0.074224	-54.427655
3.800000	-0.081946	-60.257056	-37.738916	37.886952	-37.738916	37.886952	-0.075402	-55.108394
3.850000	-0.083228	-60.996132	-37.683248	37.414929	-37.683248	37.414929	-0.076580	-55.789133
3.900000	-0.084536	-61.731947	-37.630565	36.959641	-37.630565	36.959641	-0.077782	-56.467122
3.950000	-0.085846	-62.467465	-37.578437	36.505875	-37.578437	36.505875	-0.078986	-57.144862
4.000000	-0.087182	-63.200006	-37.528854	36.067747	-37.528854	36.067747	-0.080214	-57.820084
4.050000	-0.088523	-63.931952	-37.479996	35.632746	-37.479996	35.632746	-0.081446	-58.494803
4.100000	-0.089888	-64.661211	-37.433273	35.212188	-37.433273	35.212188	-0.082700	-59.167241
4.150000	-0.091262	-65.389574	-37.387417	34.796443	-37.387417	34.796443	-0.083961	-59.838919
4.200000	-0.092659	-66.115544	-37.343317	34.393844	-37.343317	34.393844	-0.085243	-60.508558
4.250000	-0.094067	-66.840318	-37.300194	33.997819	-37.300194	33.997819	-0.086535	-61.177179
4.300000	-0.095496	-67.562995	-37.258483	33.613551	-37.258483	33.613551	-0.087846	-61.844008
4.350000	-0.096940	-68.284176	-37.217824	33.237680	-37.217824	33.237680	-0.089170	-62.509557
4.400000	-0.098404	-69.003561	-37.178269	32.872084	-37.178269	32.872084	-0.090512	-63.173566
4.450000	-0.099886	-69.721150	-37.139804	32.516763	-37.139804	32.516763	-0.091871	-63.836033
4.500000	-0.101385	-70.437245	-37.102173	32.170152	-37.102173	32.170152	-0.093244	-64.497213
4.550000	-0.102908	-71.151246	-37.065628	31.835733	-37.065628	31.835733	-0.094639	-65.156590
4.600000	-0.104444	-71.864055	-37.029686	31.508382	-37.029686	31.508382	-0.096046	-65.814935
4.650000	-0.106008	-72.574477	-36.994785	31.195166	-36.994785	31.195166	-0.097478	-66.471217
4.700000	-0.107583	-73.284008	-36.960297	30.887309	-36.960297	30.887309	-0.098919	-67.126724
4.750000	-0.109190	-73.990862	-36.926761	30.595531	-36.926761	30.595531	-0.100390	-67.779908
4.800000	-0.110805	-74.697125	-36.893490	30.307353	-36.893490	30.307353	-0.101868	-68.432575
4.850000	-0.112458	-75.400427	-36.861032	30.037179	-36.861032	30.037179	-0.103379	-69.082660
4.900000	-0.114115	-76.103435	-36.828741	29.768812	-36.828741	29.768812	-0.104894	-69.732487
4.950000	-0.115814	-76.803203	-36.797073	29.520323	-36.797073	29.520323	-0.106448	-70.379476
5.000000	-0.117514	-77.502971	-36.765520	29.271835	-36.765520	29.271835	-0.108002	-71.026465
5.050000	-0.119263	-78.199227	-36.734348	29.045021	-36.734348	29.045021	-0.109600	-71.670364
5.100000	-0.121011	-78.895483	-36.703287	28.818207	-36.703287	28.818207	-0.111197	-72.314263
5.150000	-0.122806	-79.588543	-36.672317	28.611154	-36.672317	28.611154	-0.112837	-72.955336
5.200000	-0.124605	-80.281312	-36.641454	28.405897	-36.641454	28.405897	-0.114480	-73.596152
5.250000	-0.126448	-80.971198	-36.610435	28.218409	-36.610435	28.218409	-0.116162	-74.234408
5.300000	-0.128300	-81.660509	-36.579472	28.034475	-36.579472	28.034475	-0.117853	-74.872152
5.350000	-0.130191	-82.347248	-36.548154	27.866259	-36.548154	27.866259	-0.119579	-75.507600
5.400000	-0.132097	-83.033131	-36.516792	27.703284	-36.516792	27.703284	-0.121318	-76.142284
5.450000	-0.134040	-83.716752	-36.484924	27.553946	-36.484924	27.553946	-0.123091	-76.774938
5.500000	-0.136001	-84.399242	-36.452864	27.411426	-36.452864	27.411426	-0.124880	-77.406576
5.550000	-0.137995	-85.079775	-36.420199	27.280458	-36.420199	27.280458	-0.126700	-78.036449
5.600000	-0.140014	-85.758910	-36.387143	27.157741	-36.387143	27.157741	-0.128541	-78.665060
5.650000	-0.142062	-86.436387	-36.353437	27.044521	-36.353437	27.044521	-0.130409	-79.292167
5.700000	-0.144140	-87.112206	-36.319091	26.940797	-36.319091	26.940797	-0.132304	-79.917770
5.750000	-0.146243	-87.786662	-36.284106	26.844581	-36.284106	26.844581	-0.134222	-80.542129
5.800000	-0.148382	-88.459209	-36.248183	26.758876	-36.248183	26.758876	-0.136171	-81.164746
5.850000	-0.150541	-89.130681	-36.211688	26.678798	-36.211688	26.678798	-0.138140	-81.786376
5.900000	-0.152742	-89.800002	-36.173912	26.609972	-36.173912	26.609972	-0.140147	-82.406031
5.950000	-0.154960	-90.468528	-36.135685	26.545040	-36.135685	26.545040	-0.142168	-83.024952
6.000000	-0.157225	-91.134671	-36.095792	26.491787	-36.095792	26.491787	-0.144233	-83.641670
6.050000	-0.159501	-91.800293	-36.055624	26.440886	-36.055624	26.440886	-0.146308	-84.257904
6.100000	-0.161832	-92.463308	-36.013368	26.401739	-36.013368	26.401739	-0.148433	-84.871715
6.150000	-0.164169	-93.126068	-35.971064	26.363632	-35.971064	26.363632	-0.150563	-85.485286
6.200000	-0.166567	-93.786010	-35.926217	26.336969	-35.926217	26.336969	-0.152749	-86.096218
6.250000	-0.168966	-94.445952	-35.881600	26.310306	-35.881600	26.310306	-0.154935	-86.707151
6.300000	-0.171432	-95.102876	-35.833958	26.294365	-35.833958	26.294365	-0.157184	-87.315238
6.350000	-0.173900	-95.759800	-35.786576	26.278424	-35.786576	26.278424	-0.159433	-87.923324
6.400000	-0.176432	-96.414012	-35.736256	26.270582	-35.736256	26.270582	-0.161741	-88.528833
6.450000	-0.178970	-97.067977	-35.685936	26.263477	-35.685936	26.263477	-0.164055	-89.134108
6.500000	-0.181568	-97.719526	-35.632826	26.262079	-35.632826	26.262079	-0.166423	-89.737069
6.550000	-0.184178	-98.370591	-35.579425	26.261822	-35.579425	26.261822	-0.168803	-90.339567
6.600000	-0.186843	-99.019530	-35.523439	26.265152	-35.523439	26.265152	-0.171233	-90.940011
6.650000	-0.189527	-99.667759	-35.466846	26.269677	-35.466846	26.269677	-0.173680	-91.539770
6.700000	-0.192260	-100.314141	-35.407925	26.275982	-35.407925	26.275982	-0.176173	-92.137729
6.750000	-0.195019	-100.959600	-35.348063	26.283176	-35.348063	26.283176	-0.178690	-92.734789
6.800000	-0.197823	-101.603480	-35.286176	26.290682	-35.286176	26.290682	-0.181247	-93.330297
6.850000	-0.200659	-102.246234	-35.223002	26.298412	-35.223002	26.298412	-0.183833	-93.924698
6.900000	-0.203533	-102.887670	-35.158147	26.305350	-35.158147	26.305350	-0.186456	-94.517790
6.950000	-0.206447	-103.527789	-35.091653	26.311497	-35.091653	26.311497	-0.189115	-95.109574
7.000000	-0.209394	-104.166839	-35.023855	26.316121	-35.023855	26.316121	-0.191804	-95.700287
7.050000	-0.212387	-104.804393	-34.954070	26.318611	-34.954070	26.318611	-0.194536	-96.289499
7.100000	-0.215408	-105.441118	-34.883380	26.319217	-34.883380	26.319217	-0.197293	-96.877868
7.150000	-0.218483	-106.076181	-34.810364	26.316055	-34.810364	26.316055	-0.200100	-97.464554
7.200000	-0.221578	-106.710640	-34.736859	26.311006	-34.736859	26.311006	-0.202926	-98.050619
7.250000	-0.224735	-107.343287	-34.660706	26.300300	-34.660706	26.300300	-0.205809	-98.634824
7.300000	-0.227907	-107.975545	-34.584486	26.288043	-34.584486	26.288043	-0.208706	-99.218625
7.350000	-0.231147	-108.605853	-34.505318	26.268033	-34.505318	26.268033	-0.211666	-99.800400
7.400000	-0.234396	-109.235972	-34.426505	26.247115	-34.426505	26.247115	-0.214634	-100.381976
7.450000	-0.237722	-109.864020	-34.344471	26.216198	-34.344471	26.216198	-0.217674	-100.961369
7.500000	-0.241049	-110.492067	-34.263205	26.185282	-34.263205	26.185282	-0.220714	-101.540763
7.550000	-0.244462	-111.117935	-34.178476	26.142025	-34.178476	26.142025	-0.223834	-102.117827
7.600000	-0.247876	-111.743802	-34.094565	26.098769	-34.094565	26.098769	-0.226955	-102.694891
7.650000	-0.251369	-112.367747	-34.007677	26.043060	-34.007677	26.043060	-0.230150	-103.269869
7.700000	-0.254871	-112.991517	-33.921309	25.986218	-33.921309	25.986218	-0.233353	-103.844656
7.750000	-0.258446	-113.613608	-33.832447	25.917179	-33.832447	25.917179	-0.236624	-104.417591
7.800000	-0.262037	-114.235365	-33.743823	25.845700	-33.743823	25.845700	-0.239909	-104.990156
7.850000	-0.265695	-114.855675	-33.653179	25.762604	-33.653179	25.762604	-0.243257	-105.561095
7.900000	-0.269377	-115.475504	-33.562509	25.675635	-33.562509	25.675635	-0.246627	-106.131493
7.950000	-0.273119	-116.094105	-33.470277	25.577903	-33.470277	25.577903	-0.250053	-106.700484
8.000000	-0.276892	-116.712094	-33.377778	25.474789	-33.377778	25.474789	-0.253508	-107.268771
8.050000	-0.280720	-117.329061	-33.284153	25.361988	-33.284153	25.361988	-0.257014	-107.835861
8.100000	-0.284586	-117.945299	-33.190042	25.242269	-33.190042	25.242269	-0.260556	-108.402095
8.150000	-0.288500	-118.560706	-33.095217	25.114108	-33.095217	25.114108	-0.264141	-108.967334
8.200000	-0.292460	-119.175284	-32.999711	24.977507	-32.999711	24.977507	-0.267771	-109.531575
8.250000	-0.296461	-119.789209	-32.903873	24.833830	-32.903873	24.833830	-0.271438	-110.095011
8.300000	-0.300516	-120.402220	-32.807184	24.680246	-32.807184	24.680246	-0.275157	-110.657320
8.350000	-0.304605	-121.014740	-32.710514	24.521023	-32.710514	24.521023	-0.278906	-111.219006
8.400000	-0.308757	-121.626278	-32.612844	24.350521	-32.612844	24.350521	-0.282714	-111.779444
8.450000	-0.312935	-122.237472	-32.515516	24.175840	-32.515516	24.175840	-0.286547	-112.339430
8.500000	-0.317184	-122.847634	-32.417059	23.988627	-32.417059	23.988627	-0.290446	-112.898060
8.550000	-0.321452	-123.457582	-32.319234	23.798687	-32.319234	23.798687	-0.294363	-113.456400
8.600000	-0.325800	-124.066466	-32.220170	23.595105	-32.220170	23.595105	-0.298354	-114.013287
8.650000	-0.330158	-124.675251	-32.122000	23.390198	-32.122000	23.390198	-0.302356	-114.570034
8.700000	-0.334605	-125.282955	-32.022497	23.170706	-32.022497	23.170706	-0.306440	-115.125242
8.750000	-0.339055	-125.890660	-31.924121	22.951214	-31.924121	22.951214	-0.310527	-115.680450
8.800000	-0.343603	-126.497287	-31.824330	22.716368	-31.824330	22.716368	-0.314706	-116.234047
8.850000	-0.348153	-127.103914	-31.725672	22.481523	-31.725672	22.481523	-0.318887	-116.787644
8.900000	-0.352794	-127.709648	-31.625930	22.233190	-31.625930	22.233190	-0.323153	-117.339826
8.950000	-0.357445	-128.315301	-31.527123	21.983631	-31.527123	21.983631	-0.327428	-117.891879
9.000000	-0.362180	-128.920230	-31.427529	21.722402	-31.427529	21.722402	-0.331782	-118.442704
9.050000	-0.366933	-129.525014	-31.328689	21.458839	-31.328689	21.458839	-0.336154	-118.993282
9.100000	-0.371763	-130.129226	-31.229329	21.185344	-31.229329	21.185344	-0.340597	-119.542808
9.150000	-0.376619	-130.733248	-31.130554	20.908539	-31.130554	20.908539	-0.345064	-120.091982
9.200000	-0.381543	-131.336834	-31.031498	20.623440	-31.031498	20.623440	-0.349596	-120.640268
9.250000	-0.386503	-131.940203	-30.932871	20.334195	-30.932871	20.334195	-0.354161	-121.188110
9.300000	-0.391524	-132.543254	-30.834177	20.038176	-30.834177	20.038176	-0.358783	-121.735217
9.350000	-0.396588	-133.146080	-30.735763	19.737318	-30.735763	19.737318	-0.363446	-122.281800
9.400000	-0.401704	-133.748691	-30.637475	19.431077	-30.637475	19.431077	-0.368158	-122.827789
9.450000	-0.406873	-134.351086	-30.539323	19.119453	-30.539323	19.119453	-0.372920	-123.373186
9.500000	-0.412086	-134.953350	-30.441474	18.803696	-30.441474	18.803696	-0.377722	-123.918120
9.550000	-0.417360	-135.555430	-30.343616	18.482154	-30.343616	18.482154	-0.382583	-124.462407
9.600000	-0.422670	-136.157444	-30.246224	18.157587	-30.246224	18.157587	-0.387477	-125.006350
9.650000	-0.428050	-136.759326	-30.148678	17.826972	-30.148678	17.826972	-0.392436	-125.549604
9.700000	-0.433457	-137.361188	-30.051752	17.494298	-30.051752	17.494298	-0.397422	-126.092619
9.750000	-0.438943	-137.962990	-29.954519	17.155444	-29.954519	17.155444	-0.402481	-126.634918
9.800000	-0.444448	-138.564798	-29.858055	16.815353	-29.858055	16.815353	-0.407559	-127.177071
9.850000	-0.450040	-139.166642	-29.761125	16.469075	-29.761125	16.469075	-0.412718	-127.718494
9.900000	-0.455643	-139.768498	-29.665110	16.122244	-29.665110	16.122244	-0.417888	-128.259852
9.950000	-0.461341	-140.370506	-29.568456	15.769331	-29.568456	15.769331	-0.423148	-128.800481
10.000000	-0.467042	-140.972514	-29.472866	15.416418	-29.472866	15.416418	-0.428410	-129.341111
