! freq	dB(S11)	phase(S11)	dB(S12)	phase(S12)	
!     	dB(S21)	phase(S21)	dB(S22)	phase(S22)	
!S-par simulation data
#  GHz  S  DB  R 50
0.000000	-0.000000	0.000000	-301.004613	180.000000	-301.004613	180.000000	-0.000000	0.000000
0.050000	-0.000104	-0.839036	-69.873397	88.198204	-69.873397	88.198204	-0.000104	-0.838916
0.100000	-0.000413	-1.677821	-63.963607	87.009431	-63.963607	87.009431	-0.000413	-1.677580
0.150000	-0.000915	-2.516121	-60.525417	86.197955	-60.525417	86.197955	-0.000915	-2.515760
0.200000	-0.001590	-3.353743	-58.080297	85.497207	-58.080297	85.497207	-0.001589	-3.353263
0.250000	-0.002425	-4.190466	-56.177246	84.807150	-56.177246	84.807150	-0.002425	-4.189865
0.300000	-0.003383	-5.026244	-54.618222	84.101389	-54.618222	84.101389	-0.003382	-5.025524
0.350000	-0.004445	-5.860958	-53.298104	83.376613	-53.298104	83.376613	-0.004444	-5.860118
0.400000	-0.005588	-6.694556	-52.153884	82.634923	-52.153884	82.634923	-0.005587	-6.693597
0.450000	-0.006791	-7.527016	-51.144732	81.879586	-51.144732	81.879586	-0.006789	-7.525939
0.500000	-0.008034	-8.358340	-50.242637	81.113596	-50.242637	81.113596	-0.008032	-8.357145
0.550000	-0.009302	-9.188545	-49.427536	80.339393	-49.427536	80.339393	-0.009300	-9.187231
0.600000	-0.010581	-10.017656	-48.684558	79.558901	-48.684558	79.558901	-0.010579	-10.016225
0.650000	-0.011863	-10.845707	-48.002376	78.773622	-48.002376	78.773622	-0.011860	-10.844158
0.700000	-0.013139	-11.672729	-47.372160	77.984742	-47.372160	77.984742	-0.013136	-11.671063
0.750000	-0.014404	-12.498752	-46.786898	77.193203	-46.786898	77.193203	-0.014401	-12.496969
0.800000	-0.015655	-13.323803	-46.240924	76.399765	-46.240924	76.399765	-0.015651	-13.321904
0.850000	-0.016889	-14.147904	-45.729597	75.605052	-45.729597	75.605052	-0.016886	-14.145888
0.900000	-0.018106	-14.971071	-45.249067	74.809582	-45.249067	74.809582	-0.018103	-14.968938
0.950000	-0.019306	-15.793314	-44.796104	74.013789	-44.796104	74.013789	-0.019303	-15.791065
1.000000	-0.020489	-16.614639	-44.367973	73.218049	-44.367973	73.218049	-0.020485	-16.612274
1.050000	-0.021656	-17.435046	-43.962337	72.422685	-43.962337	72.422685	-0.021652	-17.432566
1.100000	-0.022808	-18.254532	-43.577184	71.627982	-43.577184	71.627982	-0.022804	-18.251938
1.150000	-0.023946	-19.073090	-43.210767	70.834193	-43.210767	70.834193	-0.023942	-19.070381
1.200000	-0.025072	-19.890709	-42.861562	70.041547	-42.861562	70.041547	-0.025067	-19.887885
1.250000	-0.026186	-20.707377	-42.528229	69.250252	-42.528229	69.250252	-0.026181	-20.704438
1.300000	-0.027290	-21.523034	-42.209695	68.460574	-42.209695	68.460574	-0.027285	-21.519981
1.350000	-0.028386	-22.337704	-41.904800	67.672630	-41.904800	67.672630	-0.028380	-22.334538
1.400000	-0.029474	-23.151370	-41.612610	66.886584	-41.612610	66.886584	-0.029468	-23.148090
1.450000	-0.030555	-23.964011	-41.332285	66.102591	-41.332285	66.102591	-0.030549	-23.960618
1.500000	-0.031631	-24.775606	-41.063071	65.320799	-41.063071	65.320799	-0.031625	-24.772101
1.550000	-0.032703	-25.586134	-40.804288	64.541347	-40.804288	64.541347	-0.032697	-25.582517
1.600000	-0.033770	-26.395574	-40.555318	63.764371	-40.555318	63.764371	-0.033764	-26.391844
1.650000	-0.034835	-27.203904	-40.315602	62.990000	-40.315602	62.990000	-0.034828	-27.200062
1.700000	-0.035896	-28.010696	-40.085451	62.219369	-40.085451	62.219369	-0.035889	-28.006744
1.750000	-0.036956	-28.816890	-39.862428	61.450206	-39.862428	61.450206	-0.036949	-28.812827
1.800000	-0.038015	-29.621642	-39.647782	60.684719	-39.647782	60.684719	-0.038008	-29.617467
1.850000	-0.039073	-30.425362	-39.440262	59.921859	-39.440262	59.921859	-0.039066	-30.421077
1.900000	-0.040130	-31.227798	-39.239950	59.162398	-39.239950	59.162398	-0.040123	-31.223404
1.950000	-0.041188	-32.028951	-39.046467	58.406337	-39.046467	58.406337	-0.041180	-32.024447
2.000000	-0.042246	-32.828995	-38.859147	57.653309	-38.859147	57.653309	-0.042238	-32.824382
2.050000	-0.043304	-33.627488	-38.678450	56.904527	-38.678450	56.904527	-0.043296	-33.622767
2.100000	-0.044363	-34.425298	-38.502581	56.157661	-38.502581	56.157661	-0.044355	-34.420468
2.150000	-0.045424	-35.221335	-38.333115	55.415791	-38.333115	55.415791	-0.045416	-35.216397
2.200000	-0.046486	-36.016029	-38.169045	54.677768	-38.169045	54.677768	-0.046478	-36.010983
2.250000	-0.047551	-36.809361	-38.010152	53.943695	-38.010152	53.943695	-0.047542	-36.804209
2.300000	-0.048618	-37.601314	-37.856229	53.213672	-37.856229	53.213672	-0.048609	-37.596055
2.350000	-0.049687	-38.391868	-37.707084	52.487802	-37.707084	52.487802	-0.049678	-38.386503
2.400000	-0.050759	-39.181007	-37.562534	51.766182	-37.562534	51.766182	-0.050750	-39.175536
2.450000	-0.051835	-39.968712	-37.422408	51.048913	-37.422408	51.048913	-0.051826	-39.963136
2.500000	-0.052914	-40.754967	-37.286544	50.336091	-37.286544	50.336091	-0.052904	-40.749286
2.550000	-0.053997	-41.539691	-37.154876	49.628017	-37.154876	49.628017	-0.053987	-41.533906
2.600000	-0.055084	-42.322932	-37.027170	48.924593	-37.027170	48.924593	-0.055074	-42.317043
2.650000	-0.056175	-43.104673	-36.903287	48.225914	-36.903287	48.225914	-0.056165	-43.098681
2.700000	-0.057271	-43.884901	-36.783097	47.532075	-36.783097	47.532075	-0.057261	-43.878805
2.750000	-0.058372	-44.663600	-36.666474	46.843171	-36.666474	46.843171	-0.058362	-44.657401
2.800000	-0.059479	-45.440756	-36.553300	46.159295	-36.553300	46.159295	-0.059468	-45.434456
2.850000	-0.060591	-46.216356	-36.443462	45.480539	-36.443462	45.480539	-0.060580	-46.209954
2.900000	-0.061709	-46.990388	-36.336851	44.806995	-36.336851	44.806995	-0.061698	-46.983884
2.950000	-0.062834	-47.762837	-36.233362	44.138755	-36.233362	44.138755	-0.062823	-47.756233
3.000000	-0.063965	-48.533693	-36.132897	43.475910	-36.132897	43.475910	-0.063954	-48.526988
3.050000	-0.065104	-49.302943	-36.035361	42.818549	-36.035361	42.818549	-0.065092	-49.296138
3.100000	-0.066249	-50.070576	-35.940660	42.166762	-35.940660	42.166762	-0.066238	-50.063672
3.150000	-0.067403	-50.836582	-35.848707	41.520637	-35.848707	41.520637	-0.067391	-50.829579
3.200000	-0.068565	-51.600950	-35.759416	40.880263	-35.759416	40.880263	-0.068553	-51.593849
3.250000	-0.069735	-52.363670	-35.672706	40.245725	-35.672706	40.245725	-0.069723	-52.356471
3.300000	-0.070914	-53.124733	-35.588496	39.617111	-35.588496	39.617111	-0.070902	-53.117436
3.350000	-0.072105	-53.883838	-35.506986	38.995576	-35.506986	38.995576	-0.072092	-53.876444
3.400000	-0.073305	-54.641195	-35.427888	38.380402	-35.427888	38.380402	-0.073292	-54.633705
3.450000	-0.074511	-55.397672	-35.350310	37.768485	-35.350310	37.768485	-0.074498	-55.390085
3.500000	-0.075733	-56.151506	-35.275815	37.166336	-35.275815	37.166336	-0.075720	-56.143823
3.550000	-0.076959	-56.904747	-35.202467	36.566418	-35.202467	36.566418	-0.076946	-56.896969
3.600000	-0.078204	-57.655028	-35.132288	35.977650	-35.132288	35.977650	-0.078191	-57.647155
3.650000	-0.079452	-58.405009	-35.062917	35.390026	-35.062917	35.390026	-0.079438	-58.397042
3.700000	-0.080722	-59.151710	-34.996782	34.814985	-34.996782	34.814985	-0.080709	-59.143649
3.750000	-0.081993	-59.898410	-34.931146	34.239944	-34.931146	34.239944	-0.081979	-59.890255
3.800000	-0.083290	-60.641509	-34.868793	33.678964	-34.868793	33.678964	-0.083276	-60.633261
3.850000	-0.084588	-61.384607	-34.806884	33.117985	-34.806884	33.117985	-0.084573	-61.376266
3.900000	-0.085911	-62.124387	-34.747840	32.570193	-34.747840	32.570193	-0.085897	-62.115954
3.950000	-0.087238	-62.863865	-34.689414	32.023599	-34.689414	32.023599	-0.087223	-62.855340
4.000000	-0.088589	-63.600315	-34.633460	31.489250	-34.633460	31.489250	-0.088574	-63.591699
4.050000	-0.089946	-64.336159	-34.578278	30.957351	-34.578278	30.957351	-0.089931	-64.327452
4.100000	-0.091327	-65.069271	-34.525204	30.436692	-34.525204	30.436692	-0.091311	-65.060473
4.150000	-0.092716	-65.801471	-34.473035	29.919780	-34.473035	29.919780	-0.092700	-65.792583
4.200000	-0.094127	-66.531238	-34.422636	29.413044	-34.422636	29.413044	-0.094111	-66.522260
4.250000	-0.095550	-67.259788	-34.373252	28.911396	-34.373252	28.911396	-0.095534	-67.250720
4.300000	-0.096994	-67.986207	-34.325330	28.418801	-34.325330	28.418801	-0.096978	-67.977051
4.350000	-0.098453	-68.711105	-34.278510	27.932672	-34.278510	27.932672	-0.098437	-68.701860
4.400000	-0.099931	-69.434177	-34.232870	27.454418	-34.232870	27.454418	-0.099914	-69.424844
4.450000	-0.101427	-70.155424	-34.188392	26.984040	-34.188392	26.984040	-0.101411	-70.146003
4.500000	-0.102941	-70.875152	-34.144844	26.520310	-34.144844	26.520310	-0.102923	-70.865643
4.550000	-0.104477	-71.592754	-34.102493	26.065888	-34.102493	26.065888	-0.104459	-71.583158
4.600000	-0.106027	-72.309143	-34.060849	25.616844	-34.060849	25.616844	-0.106009	-72.299460
4.650000	-0.107604	-73.023108	-34.020407	25.178554	-34.020407	25.178554	-0.107586	-73.013339
4.700000	-0.109192	-73.736167	-33.980483	24.744332	-33.980483	24.744332	-0.109174	-73.726312
4.750000	-0.110813	-74.446509	-33.941734	24.322316	-33.941734	24.322316	-0.110795	-74.436568
4.800000	-0.112441	-75.156249	-33.903348	23.903029	-33.903348	23.903029	-0.112423	-75.146222
4.850000	-0.114107	-75.862983	-33.866078	23.497389	-33.866078	23.497389	-0.114088	-75.852871
4.900000	-0.115776	-76.569418	-33.829047	23.093118	-33.829047	23.093118	-0.115757	-76.559221
4.950000	-0.117488	-77.272563	-33.793041	22.703914	-33.793041	22.703914	-0.117469	-77.262282
5.000000	-0.119201	-77.975709	-33.757184	22.314710	-33.757184	22.314710	-0.119181	-77.965344
5.050000	-0.120961	-78.675290	-33.722228	21.941954	-33.722228	21.941954	-0.120941	-78.664841
5.100000	-0.122722	-79.374871	-33.687413	21.569198	-33.687413	21.569198	-0.122702	-79.364338
5.150000	-0.124529	-80.071209	-33.653246	21.211481	-33.653246	21.211481	-0.124508	-80.060592
5.200000	-0.126340	-80.767251	-33.619259	20.855131	-33.619259	20.855131	-0.126319	-80.756551
5.250000	-0.128194	-81.460369	-33.585699	20.512369	-33.585699	20.512369	-0.128173	-81.449587
5.300000	-0.130057	-82.152903	-33.552327	20.172324	-33.552327	20.172324	-0.130036	-82.142037
5.350000	-0.131960	-82.842829	-33.519195	19.844383	-33.519195	19.844383	-0.131938	-82.831881
5.400000	-0.133876	-83.531886	-33.486226	19.520478	-33.486226	19.520478	-0.133855	-83.520856
5.450000	-0.135830	-84.218649	-33.453342	19.207175	-33.453342	19.207175	-0.135808	-84.207538
5.500000	-0.137802	-84.904266	-33.420563	18.899173	-33.420563	18.899173	-0.137780	-84.893072
5.550000	-0.139807	-85.587898	-33.387750	18.600267	-33.387750	18.600267	-0.139785	-85.576623
5.600000	-0.141836	-86.270112	-33.354950	18.307857	-33.354950	18.307857	-0.141813	-86.258756
5.650000	-0.143895	-86.950647	-33.322034	18.023048	-33.322034	18.023048	-0.143872	-86.939210
5.700000	-0.145983	-87.629501	-33.289003	17.745839	-33.289003	17.745839	-0.145959	-87.617983
5.750000	-0.148096	-88.306974	-33.255809	17.474765	-33.255809	17.474765	-0.148072	-88.295375
5.800000	-0.150244	-88.982512	-33.222341	17.212279	-33.222341	17.212279	-0.150220	-88.970833
5.850000	-0.152414	-89.656961	-33.188701	16.954513	-33.188701	16.954513	-0.152389	-89.645201
5.900000	-0.154624	-90.329231	-33.154593	16.706185	-33.154593	16.706185	-0.154599	-90.317391
5.950000	-0.156851	-91.000695	-33.120342	16.461231	-33.120342	16.461231	-0.156826	-90.988775
6.000000	-0.159125	-91.669746	-33.085396	16.226403	-33.085396	16.226403	-0.159100	-91.657746
6.050000	-0.161411	-92.338269	-33.050373	15.993700	-33.050373	15.993700	-0.161385	-92.326189
6.100000	-0.163751	-93.004153	-33.014400	15.771621	-33.014400	15.771621	-0.163725	-92.991993
6.150000	-0.166097	-93.669778	-32.978449	15.550535	-32.978449	15.550535	-0.166070	-93.657538
6.200000	-0.168503	-94.332550	-32.941266	15.340363	-32.941266	15.340363	-0.168477	-94.320231
6.250000	-0.170911	-94.995322	-32.904242	15.130191	-32.904242	15.130191	-0.170884	-94.982924
6.300000	-0.173386	-95.655040	-32.865676	14.930991	-32.865676	14.930991	-0.173359	-95.642562
6.350000	-0.175862	-96.314757	-32.827281	14.731791	-32.827281	14.731791	-0.175835	-96.302200
6.400000	-0.178402	-96.971729	-32.787330	14.541712	-32.787330	14.541712	-0.178374	-96.959093
6.450000	-0.180949	-97.628452	-32.747405	14.352463	-32.747405	14.352463	-0.180920	-97.615737
6.500000	-0.183555	-98.282731	-32.705950	14.170585	-32.705950	14.170585	-0.183526	-98.269936
6.550000	-0.186173	-98.936520	-32.664351	13.990182	-32.664351	13.990182	-0.186144	-98.923646
6.600000	-0.188846	-99.588158	-32.621286	13.815531	-32.621286	13.815531	-0.188816	-99.575205
6.650000	-0.191537	-100.239079	-32.577881	13.642796	-32.577881	13.642796	-0.191507	-100.226046
6.700000	-0.194279	-100.888131	-32.533114	13.474345	-32.533114	13.474345	-0.194248	-100.875019
6.750000	-0.197045	-101.536249	-32.487791	13.308036	-32.487791	13.308036	-0.197015	-101.523058
6.800000	-0.199856	-102.182771	-32.441243	13.144719	-32.441243	13.144719	-0.199825	-102.169501
6.850000	-0.202699	-102.828155	-32.393907	12.983540	-32.393907	12.983540	-0.202668	-102.814805
6.900000	-0.205581	-103.472207	-32.345515	12.824258	-32.345515	12.824258	-0.205550	-103.458777
6.950000	-0.208502	-104.114926	-32.296088	12.666873	-32.296088	12.666873	-0.208470	-104.101417
7.000000	-0.211457	-104.756566	-32.245805	12.510503	-32.245805	12.510503	-0.211424	-104.742978
7.050000	-0.214457	-105.396694	-32.194232	12.355553	-32.194232	12.355553	-0.214424	-105.383026
7.100000	-0.217485	-106.035983	-32.142026	12.200959	-32.142026	12.200959	-0.217451	-106.022235
7.150000	-0.220566	-106.673593	-32.088272	12.047075	-32.088272	12.047075	-0.220532	-106.659766
7.200000	-0.223668	-107.310594	-32.034129	11.893118	-32.034129	11.893118	-0.223634	-107.296686
7.250000	-0.226832	-107.945764	-31.978178	11.738941	-31.978178	11.738941	-0.226797	-107.931776
7.300000	-0.230010	-108.580539	-31.922099	11.584493	-31.922099	11.584493	-0.229975	-108.566471
7.350000	-0.233258	-109.213346	-31.863960	11.428689	-31.863960	11.428689	-0.233222	-109.199198
7.400000	-0.236513	-109.845963	-31.805961	11.272642	-31.805961	11.272642	-0.236477	-109.831733
7.450000	-0.239845	-110.476486	-31.745660	11.113919	-31.745660	11.113919	-0.239809	-110.462176
7.500000	-0.243179	-111.107010	-31.685774	10.955196	-31.685774	10.955196	-0.243142	-111.092619
7.550000	-0.246598	-111.735332	-31.623358	10.792323	-31.623358	10.792323	-0.246561	-111.720860
7.600000	-0.250018	-112.363654	-31.561387	10.629449	-31.561387	10.629449	-0.249980	-112.349101
7.650000	-0.253518	-112.990035	-31.497166	10.461710	-31.497166	10.461710	-0.253479	-112.975400
7.700000	-0.257026	-113.616240	-31.433174	10.293529	-31.433174	10.293529	-0.256987	-113.601522
7.750000	-0.260607	-114.240750	-31.367226	10.120033	-31.367226	10.120033	-0.260568	-114.225950
7.800000	-0.264204	-114.864922	-31.301294	9.945473	-31.301294	9.945473	-0.264164	-114.850039
7.850000	-0.267868	-115.487634	-31.233708	9.765404	-31.233708	9.765404	-0.267828	-115.472669
7.900000	-0.271556	-116.109860	-31.165931	9.583498	-31.165931	9.583498	-0.271515	-116.094811
7.950000	-0.275304	-116.730847	-31.096802	9.396121	-31.096802	9.396121	-0.275263	-116.715715
8.000000	-0.279083	-117.351216	-31.027289	9.206008	-31.027289	9.206008	-0.279042	-117.336000
8.050000	-0.282916	-117.970554	-30.956723	9.010675	-30.956723	9.010675	-0.282874	-117.955254
8.100000	-0.286788	-118.589155	-30.885590	8.811613	-30.885590	8.811613	-0.286746	-118.573771
8.150000	-0.290707	-119.206919	-30.813698	8.607765	-30.813698	8.607765	-0.290664	-119.191450
8.200000	-0.294673	-119.823846	-30.741070	8.399133	-30.741070	8.399133	-0.294630	-119.808291
8.250000	-0.298679	-120.440113	-30.667965	8.186305	-30.667965	8.186305	-0.298635	-120.424474
8.300000	-0.302741	-121.055459	-30.593973	7.967606	-30.593973	7.967606	-0.302696	-121.039733
8.350000	-0.306834	-121.670308	-30.519772	7.745426	-30.519772	7.745426	-0.306789	-121.654496
8.400000	-0.310992	-122.284167	-30.444548	7.516286	-30.444548	7.516286	-0.310946	-122.268268
8.450000	-0.315175	-122.897679	-30.369368	7.284474	-30.369368	7.284474	-0.315128	-122.881693
8.500000	-0.319429	-123.510149	-30.293046	7.044643	-30.293046	7.044643	-0.319382	-123.494075
8.550000	-0.323702	-124.122404	-30.217003	6.803009	-30.217003	6.803009	-0.323654	-124.106242
8.600000	-0.328055	-124.733584	-30.139713	6.552354	-30.139713	6.552354	-0.328007	-124.717332
8.650000	-0.332418	-125.344664	-30.062920	6.300796	-30.062920	6.300796	-0.332369	-125.328324
8.700000	-0.336870	-125.954654	-29.984790	6.039297	-29.984790	6.039297	-0.336821	-125.938223
8.750000	-0.341324	-126.564644	-29.907356	5.777797	-29.907356	5.777797	-0.341275	-126.548123
8.800000	-0.345876	-127.173545	-29.828507	5.505535	-29.828507	5.505535	-0.345826	-127.156933
8.850000	-0.350431	-127.782447	-29.750368	5.233274	-29.750368	5.233274	-0.350380	-127.765744
8.900000	-0.355076	-128.390447	-29.671084	4.951310	-29.671084	4.951310	-0.355025	-128.373651
8.950000	-0.359732	-128.998364	-29.592350	4.668464	-29.592350	4.668464	-0.359680	-128.981476
9.000000	-0.364470	-129.605550	-29.512721	4.377019	-29.512721	4.377019	-0.364418	-129.588568
9.050000	-0.369228	-130.212589	-29.433498	4.083854	-29.433498	4.083854	-0.369175	-130.195514
9.100000	-0.374061	-130.819050	-29.353606	3.783206	-29.353606	3.783206	-0.374007	-130.801880
9.150000	-0.378921	-131.425318	-29.273985	3.480063	-29.273985	3.480063	-0.378866	-131.408053
9.200000	-0.383848	-132.031145	-29.193904	3.170539	-29.193904	3.170539	-0.383793	-132.013784
9.250000	-0.388811	-132.636751	-29.113968	2.857824	-29.113968	2.857824	-0.388756	-132.619293
9.300000	-0.393834	-133.242036	-29.033762	2.539796	-29.033762	2.539796	-0.393778	-133.224481
9.350000	-0.398901	-133.847092	-28.953582	2.217972	-28.953582	2.217972	-0.398845	-133.829438
9.400000	-0.404020	-134.451928	-28.873304	1.891848	-28.873304	1.891848	-0.403963	-134.434176
9.450000	-0.409191	-135.056546	-28.792938	1.561422	-28.792938	1.561422	-0.409133	-135.038694
9.500000	-0.414406	-135.661029	-28.712634	1.227638	-28.712634	1.227638	-0.414348	-135.643077
9.550000	-0.419682	-136.265324	-28.632129	0.889154	-28.632129	0.889154	-0.419623	-136.247270
9.600000	-0.424994	-136.869550	-28.551832	0.548172	-28.551832	0.548172	-0.424934	-136.851395
9.650000	-0.430374	-137.473639	-28.471220	0.202196	-28.471220	0.202196	-0.430314	-137.455381
9.700000	-0.435783	-138.077707	-28.390956	-0.145505	-28.390956	-0.145505	-0.435722	-138.059345
9.750000	-0.441269	-138.681709	-28.310259	-0.498386	-28.310259	-0.498386	-0.441207	-138.663242
9.800000	-0.446775	-139.285717	-28.230043	-0.852318	-28.230043	-0.852318	-0.446712	-139.267145
9.850000	-0.452366	-139.889753	-28.149267	-1.211510	-28.149267	-1.211510	-0.452303	-139.871075
9.900000	-0.457969	-140.493803	-28.069105	-1.571177	-28.069105	-1.571177	-0.457905	-140.475018
9.950000	-0.463666	-141.097997	-27.988246	-1.936083	-27.988246	-1.936083	-0.463601	-141.079104
10.000000	-0.469366	-141.702192	-27.908134	-2.300989	-27.908134	-2.300989	-0.469301	-141.683189
