! freq	dB(S11)	phase(S11)	dB(S12)	phase(S12)	
!     	dB(S21)	phase(S21)	dB(S22)	phase(S22)	
!S-par simulation data
#  GHz  S  DB  R 50
0.000000	-0.000000	0.000000	-314.305099	0.000000	-314.305099	0.000000	-0.000000	0.000000
0.050000	-0.000100	-0.786835	-73.659662	86.116692	-73.659662	86.116692	-0.000101	-0.809034
0.100000	-0.000394	-1.573430	-67.919357	85.954761	-67.919357	85.954761	-0.000400	-1.617825
0.150000	-0.000872	-2.359562	-64.492837	85.785962	-64.492837	85.785962	-0.000886	-2.426146
0.200000	-0.001514	-3.145048	-62.036030	85.402484	-62.036030	85.402484	-0.001539	-3.233812
0.250000	-0.002308	-3.929681	-60.121487	84.879116	-60.121487	84.879116	-0.002346	-4.040609
0.300000	-0.003215	-4.713423	-58.554358	84.282405	-58.554358	84.282405	-0.003271	-4.846497
0.350000	-0.004220	-5.496166	-57.228849	83.636253	-57.228849	83.636253	-0.004295	-5.651363
0.400000	-0.005299	-6.277869	-56.081236	82.958052	-56.081236	82.958052	-0.005397	-6.455161
0.450000	-0.006431	-7.058518	-55.070131	82.258209	-55.070131	82.258209	-0.006554	-7.257874
0.500000	-0.007599	-7.838122	-54.167140	81.543285	-54.167140	81.543285	-0.007749	-8.059506
0.550000	-0.008788	-8.616702	-53.351944	80.817615	-53.351944	80.817615	-0.008967	-8.860076
0.600000	-0.009986	-9.394291	-52.609500	80.084181	-52.609500	80.084181	-0.010195	-9.659615
0.650000	-0.011184	-10.170924	-51.928365	79.345115	-51.928365	79.345115	-0.011424	-10.458154
0.700000	-0.012376	-10.946633	-51.299630	78.601984	-51.299630	78.601984	-0.012647	-11.255728
0.750000	-0.013556	-11.721453	-50.716223	77.855979	-50.716223	77.855979	-0.013858	-12.052367
0.800000	-0.014722	-12.495410	-50.172439	77.108028	-50.172439	77.108028	-0.015056	-12.848100
0.850000	-0.015873	-13.268527	-49.663607	76.358868	-49.663607	76.358868	-0.016237	-13.642947
0.900000	-0.017007	-14.040822	-49.185855	75.609103	-49.185855	75.609103	-0.017402	-14.436926
0.950000	-0.018125	-14.812305	-48.735938	74.859237	-48.735938	74.859237	-0.018549	-15.230048
1.000000	-0.019227	-15.582985	-48.311109	74.109694	-48.311109	74.109694	-0.019681	-16.022319
1.050000	-0.020315	-16.352862	-47.909023	73.360846	-47.909023	73.360846	-0.020797	-16.813742
1.100000	-0.021389	-17.121935	-47.527659	72.613017	-47.527659	72.613017	-0.021898	-17.604313
1.150000	-0.022450	-17.890198	-47.165266	71.866497	-47.165266	71.866497	-0.022986	-18.394027
1.200000	-0.023500	-18.657644	-46.820319	71.121548	-46.820319	71.121548	-0.024062	-19.182874
1.250000	-0.024540	-19.424261	-46.491473	70.378414	-46.491473	70.378414	-0.025128	-19.970843
1.300000	-0.025571	-20.189998	-46.177678	69.637416	-46.177678	69.637416	-0.026183	-20.757880
1.350000	-0.026594	-20.954878	-45.877750	68.898684	-45.877750	68.898684	-0.027231	-21.544007
1.400000	-0.027610	-21.718884	-45.590753	68.162417	-45.590753	68.162417	-0.028271	-22.329208
1.450000	-0.028621	-22.481999	-45.315847	67.428804	-45.315847	67.428804	-0.029305	-23.113465
1.500000	-0.029626	-23.244205	-45.052279	66.698027	-45.052279	66.698027	-0.030334	-23.896757
1.550000	-0.030628	-24.005484	-44.799369	65.970264	-44.799369	65.970264	-0.031358	-24.679067
1.600000	-0.031626	-24.765817	-44.556499	65.245685	-44.556499	65.245685	-0.032379	-25.460374
1.650000	-0.032622	-25.525186	-44.323111	64.524461	-44.323111	64.524461	-0.033397	-26.240657
1.700000	-0.033615	-26.283219	-44.099718	63.808057	-44.099718	63.808057	-0.034411	-27.019525
1.750000	-0.034607	-27.040732	-43.883405	63.093546	-43.883405	63.093546	-0.035425	-27.797841
1.800000	-0.035597	-27.796991	-43.675830	62.383794	-43.675830	62.383794	-0.036437	-28.574827
1.850000	-0.036587	-28.552354	-43.475532	61.677442	-43.475532	61.677442	-0.037448	-29.350863
1.900000	-0.037576	-29.306601	-43.282705	60.975516	-43.282705	60.975516	-0.038459	-30.125716
1.950000	-0.038565	-30.059733	-43.096962	60.278017	-43.096962	60.278017	-0.039470	-30.899386
2.000000	-0.039555	-30.811901	-42.917546	59.584494	-42.917546	59.584494	-0.040481	-31.672034
2.050000	-0.040545	-31.562720	-42.745107	58.896538	-42.745107	58.896538	-0.041493	-32.443251
2.100000	-0.041537	-32.312742	-42.577952	58.211993	-42.577952	58.211993	-0.042505	-33.213624
2.150000	-0.042529	-33.061171	-42.417736	57.534270	-42.417736	57.534270	-0.043519	-33.982307
2.200000	-0.043523	-33.808983	-42.261847	56.859279	-42.261847	56.859279	-0.044535	-34.750338
2.250000	-0.044520	-34.554947	-42.112908	56.192481	-42.112908	56.192481	-0.045553	-35.516408
2.300000	-0.045517	-35.300487	-41.967417	55.527620	-41.967417	55.527620	-0.046572	-36.282030
2.350000	-0.046519	-36.043912	-41.828924	54.872446	-41.828924	54.872446	-0.047595	-37.045411
2.400000	-0.047521	-36.787120	-41.693065	54.218299	-41.693065	54.218299	-0.048619	-37.808561
2.450000	-0.048528	-37.527939	-41.564280	53.575454	-41.564280	53.575454	-0.049648	-38.569181
2.500000	-0.049536	-38.268757	-41.437376	52.932609	-41.437376	52.932609	-0.050678	-39.329800
2.550000	-0.050551	-39.006902	-41.317636	52.302806	-41.317636	52.302806	-0.051716	-40.087589
2.600000	-0.051567	-39.745047	-41.199525	51.673004	-41.199525	51.673004	-0.052753	-40.845378
2.650000	-0.052590	-40.480683	-41.087792	51.055821	-41.087792	51.055821	-0.053799	-41.600512
2.700000	-0.053614	-41.216092	-40.977908	50.439785	-40.977908	50.439785	-0.054845	-42.355405
2.750000	-0.054646	-41.949170	-40.873659	49.835833	-40.873659	49.835833	-0.055901	-43.107834
2.800000	-0.055680	-42.681783	-40.771490	49.234298	-40.771490	49.234298	-0.056958	-43.859769
2.850000	-0.056723	-43.412256	-40.674250	48.644197	-40.674250	48.644197	-0.058023	-44.609443
2.900000	-0.057768	-44.142016	-40.579320	48.057907	-40.579320	48.057907	-0.059092	-45.358363
2.950000	-0.058822	-44.869838	-40.488653	47.482284	-40.488653	47.482284	-0.060170	-46.105237
3.000000	-0.059881	-45.596692	-40.400526	46.911994	-40.400526	46.911994	-0.061252	-46.851087
3.050000	-0.060948	-46.321821	-40.316031	46.351485	-40.316031	46.351485	-0.062343	-47.595117
3.100000	-0.062021	-47.045719	-40.234294	45.797961	-40.234294	45.797961	-0.063440	-48.337846
3.150000	-0.063101	-47.768115	-40.155598	45.253207	-40.155598	45.253207	-0.064546	-49.078992
3.200000	-0.064190	-48.489010	-40.079866	44.717224	-40.079866	44.717224	-0.065659	-49.818553
3.250000	-0.065286	-49.208635	-40.006619	44.188876	-40.006619	44.188876	-0.066780	-50.556777
3.300000	-0.066392	-49.926484	-39.936525	43.671217	-39.936525	43.671217	-0.067912	-51.293127
3.350000	-0.067505	-50.643303	-39.868398	43.159930	-39.868398	43.159930	-0.069050	-52.028394
3.400000	-0.068630	-51.358065	-39.803590	42.661386	-39.803590	42.661386	-0.070201	-52.761493
3.450000	-0.069760	-52.072045	-39.740269	42.167820	-39.740269	42.167820	-0.071358	-53.493770
3.500000	-0.070906	-52.783683	-39.680407	41.689186	-39.680407	41.689186	-0.072530	-54.223582
3.550000	-0.072055	-53.494795	-39.621593	41.214004	-39.621593	41.214004	-0.073707	-54.952841
3.600000	-0.073223	-54.203275	-39.566345	40.756077	-39.566345	40.756077	-0.074902	-55.679333
3.650000	-0.074393	-54.911490	-39.511748	40.299943	-39.511748	40.299943	-0.076100	-56.405546
3.700000	-0.075585	-55.616783	-39.460789	39.863520	-39.460789	39.863520	-0.077320	-57.128690
3.750000	-0.076777	-56.322075	-39.410128	39.427097	-39.410128	39.427097	-0.078540	-57.851834
3.800000	-0.077995	-57.024153	-39.363136	39.012966	-39.363136	39.012966	-0.079787	-58.571604
3.850000	-0.079212	-57.726231	-39.316397	38.598835	-39.316397	38.598835	-0.081034	-59.291373
3.900000	-0.080455	-58.425341	-39.272788	38.205853	-39.272788	38.205853	-0.082306	-60.008031
3.950000	-0.081699	-59.124180	-39.229658	37.814792	-39.229658	37.814792	-0.083581	-60.724405
4.000000	-0.082968	-59.820304	-39.189151	37.443590	-39.189151	37.443590	-0.084881	-61.437935
4.050000	-0.084242	-60.515885	-39.149311	37.076358	-39.149311	37.076358	-0.086186	-62.150896
4.100000	-0.085538	-61.209008	-39.111626	36.727548	-39.111626	36.727548	-0.087514	-62.861286
4.150000	-0.086843	-61.901312	-39.074757	36.384878	-39.074757	36.384878	-0.088851	-63.570819
4.200000	-0.088169	-62.591423	-39.039611	36.059045	-39.039611	36.059045	-0.090209	-64.278060
4.250000	-0.089505	-63.280437	-39.005387	35.741631	-39.005387	35.741631	-0.091579	-64.984154
4.300000	-0.090861	-63.967525	-38.972495	35.439327	-38.972495	35.439327	-0.092970	-65.688238
4.350000	-0.092232	-64.653238	-38.940581	35.147816	-38.940581	35.147816	-0.094375	-66.390886
4.400000	-0.093620	-65.337297	-38.909655	34.869550	-38.909655	34.869550	-0.095798	-67.091808
4.450000	-0.095027	-66.019701	-38.879708	34.604527	-38.879708	34.604527	-0.097240	-67.791006
4.500000	-0.096449	-66.700725	-38.850454	34.350754	-38.850454	34.350754	-0.098698	-68.488765
4.550000	-0.097892	-67.379816	-38.822121	34.112728	-38.822121	34.112728	-0.100179	-69.184512
4.600000	-0.099349	-68.057802	-38.794237	33.883840	-38.794237	33.883840	-0.101673	-69.879109
4.650000	-0.100831	-68.733578	-38.767155	33.673227	-38.767155	33.673227	-0.103194	-70.571407
4.700000	-0.102324	-69.408526	-38.740334	33.469542	-38.740334	33.469542	-0.104725	-71.262844
4.750000	-0.103848	-70.080990	-38.714128	33.286643	-38.714128	33.286643	-0.106288	-71.951700
4.800000	-0.105378	-70.752901	-38.688056	33.108392	-38.688056	33.108392	-0.107859	-72.639983
4.850000	-0.106944	-71.422056	-38.662340	32.953377	-38.662340	32.953377	-0.109466	-73.325405
4.900000	-0.108514	-72.090935	-38.636695	32.800688	-38.636695	32.800688	-0.111077	-74.010542
4.950000	-0.110124	-72.756789	-38.611073	32.673573	-38.611073	32.673573	-0.112729	-74.692544
5.000000	-0.111734	-73.422642	-38.585527	32.546459	-38.585527	32.546459	-0.114382	-75.374545
5.050000	-0.113389	-74.085205	-38.559594	32.447083	-38.559594	32.447083	-0.116081	-76.053141
5.100000	-0.115045	-74.747767	-38.533738	32.347707	-38.533738	32.347707	-0.117781	-76.731736
5.150000	-0.116744	-75.407325	-38.507155	32.273428	-38.507155	32.273428	-0.119526	-77.407227
5.200000	-0.118448	-76.066610	-38.480580	32.201431	-38.480580	32.201431	-0.121275	-78.082436
5.250000	-0.120192	-76.723177	-38.453000	32.151764	-38.453000	32.151764	-0.123066	-78.754839
5.300000	-0.121944	-77.379200	-38.425291	32.106565	-38.425291	32.106565	-0.124865	-79.426682
5.350000	-0.123734	-78.032790	-38.396369	32.080847	-38.396369	32.080847	-0.126704	-80.096018
5.400000	-0.125537	-78.685570	-38.367110	32.061623	-38.367110	32.061623	-0.128556	-80.764520
5.450000	-0.127375	-79.336202	-38.336503	32.058997	-38.336503	32.058997	-0.130444	-81.430811
5.500000	-0.129231	-79.985759	-38.305282	32.064670	-38.305282	32.064670	-0.132350	-82.095997
5.550000	-0.131117	-80.633451	-38.272654	32.084080	-38.272654	32.084080	-0.134288	-82.759268
5.600000	-0.133027	-81.279810	-38.239067	32.113301	-38.239067	32.113301	-0.136250	-83.421170
5.650000	-0.134964	-81.924583	-38.204092	32.153484	-38.204092	32.153484	-0.138240	-84.081445
5.700000	-0.136929	-82.567770	-38.167748	32.204628	-38.167748	32.204628	-0.140259	-84.740094
5.750000	-0.138918	-83.209647	-38.130117	32.264114	-38.130117	32.264114	-0.142302	-85.397403
5.800000	-0.140940	-83.849690	-38.090645	32.335278	-38.090645	32.335278	-0.144380	-86.052835
5.850000	-0.142982	-84.488696	-38.050068	32.412392	-38.050068	32.412392	-0.146478	-86.707207
5.900000	-0.145063	-85.125626	-38.007123	32.501405	-38.007123	32.501405	-0.148617	-87.359459
5.950000	-0.147159	-85.761786	-37.963333	32.594273	-37.963333	32.594273	-0.150771	-88.010926
6.000000	-0.149300	-86.395637	-37.916604	32.698710	-37.916604	32.698710	-0.152971	-88.660039
6.050000	-0.151452	-87.028981	-37.869362	32.805275	-37.869362	32.805275	-0.155183	-89.308635
6.100000	-0.153656	-87.659787	-37.818577	32.922485	-37.818577	32.922485	-0.157447	-89.954649
6.150000	-0.155865	-88.290344	-37.767679	33.040521	-37.767679	33.040521	-0.159717	-90.600410
6.200000	-0.158131	-88.918144	-37.712610	33.167660	-37.712610	33.167660	-0.162047	-91.243371
6.250000	-0.160399	-89.545944	-37.657887	33.294799	-37.657887	33.294799	-0.164377	-91.886333
6.300000	-0.162730	-90.170778	-37.598355	33.428874	-37.598355	33.428874	-0.166774	-92.526289
6.350000	-0.165063	-90.795611	-37.539229	33.562949	-37.539229	33.562949	-0.169171	-93.166245
6.400000	-0.167456	-91.417763	-37.475563	33.700547	-37.475563	33.700547	-0.171630	-93.803490
6.450000	-0.169855	-92.039671	-37.411914	33.838465	-37.411914	33.838465	-0.174096	-94.440489
6.500000	-0.172310	-92.659179	-37.344078	33.976970	-37.344078	33.976970	-0.176619	-95.075066
6.550000	-0.174777	-93.278206	-37.275845	34.115593	-37.275845	34.115593	-0.179154	-95.709159
6.600000	-0.177296	-93.895106	-37.203850	34.252399	-37.203850	34.252399	-0.181743	-96.341113
6.650000	-0.179833	-94.511297	-37.131027	34.388600	-37.131027	34.388600	-0.184350	-96.972354
6.700000	-0.182417	-95.125629	-37.054927	34.521149	-37.054927	34.521149	-0.187006	-97.601729
6.750000	-0.185025	-95.739032	-36.977564	34.651870	-36.977564	34.651870	-0.189686	-98.230173
6.800000	-0.187675	-96.350837	-36.897457	34.777685	-36.897457	34.777685	-0.192409	-98.857017
6.850000	-0.190355	-96.961500	-36.815658	34.899996	-36.815658	34.899996	-0.195164	-99.482721
6.900000	-0.193073	-97.570820	-36.731683	35.016721	-36.731683	35.016721	-0.197956	-100.107083
6.950000	-0.195827	-98.178796	-36.645602	35.127863	-36.645602	35.127863	-0.200786	-100.730105
7.000000	-0.198613	-98.785673	-36.557932	35.233294	-36.557932	35.233294	-0.203649	-101.352035
7.050000	-0.201443	-99.391013	-36.467766	35.330730	-36.467766	35.330730	-0.206557	-101.972437
7.100000	-0.204299	-99.995493	-36.376607	35.422836	-36.376607	35.422836	-0.209491	-102.591987
7.150000	-0.207206	-100.598253	-36.282595	35.504283	-36.282595	35.504283	-0.212478	-103.209831
7.200000	-0.210133	-101.200381	-36.188178	35.581234	-36.188178	35.581234	-0.215485	-103.827052
7.250000	-0.213118	-101.800616	-36.090590	35.644694	-36.090590	35.644694	-0.218551	-104.442403
7.300000	-0.216117	-102.400439	-35.993169	35.704873	-35.993169	35.704873	-0.221632	-105.057350
7.350000	-0.219181	-102.998206	-35.892299	35.748646	-35.892299	35.748646	-0.224781	-105.670274
7.400000	-0.222254	-103.595773	-35.792143	35.790663	-35.792143	35.790663	-0.227937	-106.283002
7.450000	-0.225399	-104.191132	-35.688306	35.813358	-35.688306	35.813358	-0.231168	-106.893567
7.500000	-0.228546	-104.786491	-35.585695	35.836053	-35.585695	35.836053	-0.234400	-107.504132
7.550000	-0.231774	-105.379503	-35.479215	35.836588	-35.479215	35.836588	-0.237715	-108.112407
7.600000	-0.235004	-105.972514	-35.374025	35.837122	-35.374025	35.837122	-0.241032	-108.720682
7.650000	-0.238308	-106.563431	-35.265642	35.816625	-35.265642	35.816625	-0.244426	-109.326924
7.700000	-0.241621	-107.154157	-35.158195	35.794215	-35.158195	35.794215	-0.247828	-109.932980
7.750000	-0.245004	-107.743032	-35.048201	35.752274	-35.048201	35.752274	-0.251301	-110.537249
7.800000	-0.248402	-108.331537	-34.938820	35.706426	-34.938820	35.706426	-0.254790	-111.141159
7.850000	-0.251863	-108.918423	-34.827497	35.642828	-34.827497	35.642828	-0.258344	-111.743516
7.900000	-0.255347	-109.504771	-34.716497	35.573312	-34.716497	35.573312	-0.261921	-112.345355
7.950000	-0.258889	-110.089725	-34.604118	35.488031	-34.604118	35.488031	-0.265557	-112.945863
8.000000	-0.262460	-110.673983	-34.491802	35.394866	-34.491802	35.394866	-0.269223	-113.545705
8.050000	-0.266083	-111.257060	-34.378624	35.288044	-34.378624	35.288044	-0.272942	-114.144428
8.100000	-0.269743	-111.839295	-34.265282	35.171466	-34.265282	35.171466	-0.276698	-114.742352
8.150000	-0.273447	-112.420553	-34.151546	35.043398	-34.151546	35.043398	-0.280501	-115.339356
8.200000	-0.277197	-113.000834	-34.037450	34.903840	-34.037450	34.903840	-0.284349	-115.935439
8.250000	-0.280984	-113.580331	-33.923380	34.754956	-33.923380	34.754956	-0.288236	-116.530789
8.300000	-0.284824	-114.158729	-33.808782	34.593016	-33.808782	34.593016	-0.292176	-117.125113
8.350000	-0.288696	-114.736524	-33.694583	34.423863	-33.694583	34.423863	-0.296149	-117.718877
8.400000	-0.292628	-115.313111	-33.579711	34.240283	-33.579711	34.240283	-0.300183	-118.311522
8.450000	-0.296584	-115.889264	-33.465570	34.051508	-33.465570	34.051508	-0.304242	-118.903769
8.500000	-0.300608	-116.464113	-33.350633	33.847146	-33.350633	33.847146	-0.308371	-119.494819
8.550000	-0.304650	-117.038685	-33.236716	33.639479	-33.236716	33.639479	-0.312518	-120.085618
8.600000	-0.308769	-117.611871	-33.121898	33.415287	-33.121898	33.415287	-0.316743	-120.675158
8.650000	-0.312897	-118.184925	-33.008352	33.189528	-33.008352	33.189528	-0.320977	-121.264579
8.700000	-0.317110	-118.756523	-32.893815	32.946530	-32.893815	32.946530	-0.325298	-121.852695
8.750000	-0.321326	-119.328122	-32.780768	32.703532	-32.780768	32.703532	-0.329622	-122.440811
8.800000	-0.325635	-119.898210	-32.666649	32.442804	-32.666649	32.442804	-0.334041	-123.027591
8.850000	-0.329946	-120.468298	-32.554010	32.182076	-32.554010	32.182076	-0.338462	-123.614371
8.900000	-0.334344	-121.037074	-32.440626	31.906115	-32.440626	31.906115	-0.342971	-124.200007
8.950000	-0.338751	-121.605730	-32.328507	31.628769	-32.328507	31.628769	-0.347490	-124.785540
9.000000	-0.343238	-122.173260	-32.215931	31.338516	-32.215931	31.338516	-0.352091	-125.370109
9.050000	-0.347743	-122.740564	-32.104423	31.045682	-32.104423	31.045682	-0.356709	-125.954486
9.100000	-0.352320	-123.306916	-31.992711	30.742083	-31.992711	30.742083	-0.361402	-126.538064
9.150000	-0.356923	-123.872950	-31.881885	30.434896	-31.881885	30.434896	-0.366120	-127.121377
9.200000	-0.361591	-124.438192	-31.771077	30.118894	-31.771077	30.118894	-0.370904	-127.704043
9.250000	-0.366293	-125.003038	-31.660983	29.798484	-31.660983	29.798484	-0.375723	-128.286385
9.300000	-0.371052	-125.567240	-31.551103	29.471008	-31.551103	29.471008	-0.380600	-128.868218
9.350000	-0.375853	-126.130983	-31.441775	29.138487	-31.441775	29.138487	-0.385520	-129.449686
9.400000	-0.380703	-126.694216	-31.332836	28.800454	-31.332836	28.800454	-0.390491	-130.030765
9.450000	-0.385604	-127.256940	-31.224287	28.456908	-31.224287	28.456908	-0.395513	-130.611456
9.500000	-0.390547	-127.819276	-31.116286	28.109209	-31.116286	28.109209	-0.400577	-131.191864
9.550000	-0.395548	-128.381069	-31.008516	27.755693	-31.008516	27.755693	-0.405700	-131.771877
9.600000	-0.400583	-128.942581	-30.901439	27.399193	-30.901439	27.399193	-0.410859	-132.351696
9.650000	-0.405685	-129.503531	-30.794430	27.036724	-30.794430	27.036724	-0.416085	-132.931131
9.700000	-0.410813	-130.064293	-30.688254	26.672260	-30.688254	26.672260	-0.421338	-133.510447
9.750000	-0.416015	-130.624491	-30.581974	26.301809	-30.581974	26.301809	-0.426666	-134.089406
9.800000	-0.421237	-131.184578	-30.476664	25.930183	-30.476664	25.930183	-0.432014	-134.668304
9.850000	-0.426540	-131.744115	-30.371067	25.552677	-30.371067	25.552677	-0.437445	-135.246892
9.900000	-0.431855	-132.303604	-30.266579	25.174656	-30.266579	25.174656	-0.442888	-135.825458
9.950000	-0.437260	-132.862572	-30.161608	24.790969	-30.161608	24.790969	-0.448422	-136.403780
10.000000	-0.442668	-133.421541	-30.057890	24.407283	-30.057890	24.407283	-0.453959	-136.982103
