! freq	dB(S11)	phase(S11)	dB(S12)	phase(S12)	
!     	dB(S21)	phase(S21)	dB(S22)	phase(S22)	
!S-par simulation data
#  GHz  S  DB  R 50
0.000000	-87.711915	0.000000	-0.000357	0.000000	-0.000357	0.000000	-87.711915	0.000000
0.050000	-82.996986	-53.970680	-0.000508	-0.918636	-0.000508	-0.918636	-83.012440	-53.690127
0.100000	-78.244364	-69.649175	-0.000951	-1.836893	-0.000951	-1.836893	-78.255914	-69.225739
0.150000	-75.001643	-75.884766	-0.001661	-2.754434	-0.001661	-2.754434	-74.999733	-75.336529
0.200000	-72.614000	-79.310557	-0.002599	-3.671006	-0.002599	-3.671006	-72.595257	-78.664058
0.250000	-70.756281	-81.614686	-0.003734	-4.586356	-0.003734	-4.586356	-70.719626	-80.899214
0.300000	-69.264576	-83.509410	-0.005002	-5.500502	-0.005002	-5.500502	-69.211356	-82.746002
0.350000	-68.050137	-85.210731	-0.006369	-6.413385	-0.006369	-6.413385	-67.982107	-84.413701
0.400000	-67.060645	-86.843972	-0.007796	-7.325054	-0.007796	-7.325054	-66.979786	-86.019434
0.450000	-66.263782	-88.469382	-0.009250	-8.235603	-0.009250	-8.235603	-66.171912	-87.616084
0.500000	-65.639415	-90.117738	-0.010705	-9.145156	-0.010705	-9.145156	-65.537974	-89.228119
0.550000	-65.175793	-91.807528	-0.012143	-10.053850	-0.012143	-10.053850	-65.065738	-90.868455
0.600000	-64.867789	-93.554259	-0.013550	-10.961827	-0.013550	-10.961827	-64.749555	-92.547136
0.650000	-64.716399	-95.376531	-0.014917	-11.869219	-0.014917	-11.869219	-64.589878	-94.276516
0.700000	-64.729203	-97.301521	-0.016239	-12.776154	-0.016239	-12.776154	-64.593725	-96.075496
0.750000	-64.921913	-99.372262	-0.017516	-13.682744	-0.017516	-13.682744	-64.776199	-97.974804
0.800000	-65.321515	-101.660325	-0.018747	-14.589089	-0.018747	-14.589089	-65.163615	-100.026058
0.850000	-65.972257	-104.291811	-0.019935	-15.495275	-0.019935	-15.495275	-65.799518	-102.320315
0.900000	-66.947307	-107.508137	-0.021083	-16.401377	-0.021083	-16.401377	-66.756682	-105.031482
0.950000	-68.372702	-111.831919	-0.022194	-17.307459	-0.022194	-17.307459	-68.162942	-108.535399
1.000000	-70.477364	-118.627774	-0.023272	-18.213576	-0.023272	-18.213576	-70.262529	-113.822781
1.050000	-73.646241	-132.527436	-0.024320	-19.119775	-0.024320	-19.119775	-73.558384	-124.590875
1.100000	-77.616884	-166.391035	-0.025343	-20.026096	-0.025343	-20.026096	-78.479504	-155.028508
1.150000	-76.520713	131.810379	-0.026345	-20.932574	-0.026345	-20.932574	-78.641287	130.737062
1.200000	-71.049003	102.378289	-0.027328	-21.839238	-0.027328	-21.839238	-71.982564	97.780675
1.250000	-66.866774	91.453325	-0.028297	-22.746115	-0.028297	-22.746115	-67.385108	87.806709
1.300000	-63.679305	85.731113	-0.029252	-23.653239	-0.029252	-23.653239	-64.024433	82.810971
1.350000	-61.110891	81.888547	-0.030199	-24.560622	-0.030199	-24.560622	-61.365185	79.460696
1.400000	-58.944963	78.985844	-0.031140	-25.468284	-0.031140	-25.468284	-59.144434	76.904250
1.450000	-57.061141	76.615262	-0.032077	-26.376241	-0.032077	-26.376241	-57.224336	74.787927
1.500000	-55.386421	74.575095	-0.033011	-27.284509	-0.033011	-27.284509	-55.524022	72.941600
1.550000	-53.873375	72.754838	-0.033945	-28.193105	-0.033945	-28.193105	-53.992049	71.273756
1.600000	-52.489482	71.089019	-0.034882	-29.102044	-0.034882	-29.102044	-52.593645	69.730835
1.650000	-51.211459	69.536383	-0.035822	-30.011339	-0.035822	-30.011339	-51.304178	68.279379
1.700000	-50.022049	68.069624	-0.036766	-30.921005	-0.036766	-30.921005	-50.105532	66.897368
1.750000	-48.908089	66.669918	-0.037718	-31.831056	-0.037718	-31.831056	-48.983973	65.569683
1.800000	-47.859292	65.323842	-0.038678	-32.741506	-0.038678	-32.741506	-47.928825	64.285569
1.850000	-46.867459	64.021547	-0.039646	-33.652368	-0.039646	-33.652368	-46.931609	63.037142
1.900000	-45.925936	62.755621	-0.040626	-34.563656	-0.040626	-34.563656	-45.985469	61.818474
1.950000	-45.029244	61.520369	-0.041618	-35.475383	-0.041618	-35.475383	-45.084775	60.625004
2.000000	-44.172810	60.311328	-0.042622	-36.387565	-0.042622	-36.387565	-44.224841	59.453156
2.050000	-43.352775	59.124942	-0.043642	-37.300213	-0.043642	-37.300213	-43.401719	58.300073
2.100000	-42.565847	57.958336	-0.044676	-38.213342	-0.044676	-38.213342	-42.612048	57.163442
2.150000	-41.809193	56.809150	-0.045728	-39.126966	-0.045728	-39.126966	-41.852939	56.041359
2.200000	-41.080354	55.675429	-0.046798	-40.041099	-0.046798	-40.041099	-41.121893	54.932243
2.250000	-40.377181	54.555530	-0.047887	-40.955754	-0.047887	-40.955754	-40.416723	53.834758
2.300000	-39.697785	53.448060	-0.048997	-41.870946	-0.048997	-41.870946	-39.735511	52.747771
2.350000	-39.040492	52.351828	-0.050129	-42.786690	-0.050129	-42.786690	-39.076559	51.670307
2.400000	-38.403811	51.265805	-0.051284	-43.702998	-0.051284	-43.702998	-38.438358	50.601521
2.450000	-37.786410	50.189095	-0.052464	-44.619886	-0.052464	-44.619886	-37.819558	49.540677
2.500000	-37.187092	49.120915	-0.053670	-45.537367	-0.053670	-45.537367	-37.218948	48.487126
2.550000	-36.603820	48.060883	-0.054905	-46.455483	-0.054905	-46.455483	-36.634478	47.440559
2.600000	-36.036669	47.008024	-0.056169	-47.374222	-0.056169	-47.374222	-36.066213	46.400155
2.650000	-35.484737	45.961794	-0.057463	-48.293598	-0.057463	-48.293598	-35.513245	45.365460
2.700000	-34.947203	44.921706	-0.058790	-49.213625	-0.058790	-49.213625	-34.974744	44.336064
2.750000	-34.423313	43.887320	-0.060152	-50.134318	-0.060152	-50.134318	-34.449951	43.311594
2.800000	-33.912379	42.858233	-0.061549	-51.055690	-0.061549	-51.055690	-33.938171	42.291710
2.850000	-33.413765	41.834081	-0.062983	-51.977754	-0.062983	-51.977754	-33.438763	41.276102
2.900000	-32.926886	40.814526	-0.064457	-52.900525	-0.064457	-52.900525	-32.951140	40.264481
2.950000	-32.451202	39.799262	-0.065973	-53.824016	-0.065973	-53.824016	-32.474755	39.256584
3.000000	-31.986211	38.788002	-0.067532	-54.748239	-0.067532	-54.748239	-32.009103	38.252166
3.050000	-31.531446	37.780483	-0.069136	-55.673209	-0.069136	-55.673209	-31.553717	37.250997
3.100000	-31.086476	36.776458	-0.070788	-56.598938	-0.070788	-56.598938	-31.108161	36.252865
3.150000	-30.650897	35.775698	-0.072489	-57.525438	-0.072489	-57.525438	-30.672028	35.257570
3.200000	-30.224331	34.777990	-0.074243	-58.452721	-0.074243	-58.452721	-30.244939	34.264926
3.250000	-29.806426	33.783133	-0.076050	-59.380801	-0.076050	-59.380801	-29.826540	33.274757
3.300000	-29.396852	32.790937	-0.077915	-60.309688	-0.077915	-60.309688	-29.416499	32.286897
3.350000	-28.995299	31.801226	-0.079838	-61.239393	-0.079838	-61.239393	-29.014505	31.301189
3.400000	-28.601477	30.813832	-0.081823	-62.169929	-0.081823	-62.169929	-28.620265	30.317485
3.450000	-28.215111	29.828596	-0.083872	-63.101305	-0.083872	-63.101305	-28.233505	29.335645
3.500000	-27.835946	28.845369	-0.085988	-64.033531	-0.085988	-64.033531	-27.853966	28.355536
3.550000	-27.463736	27.864009	-0.088173	-64.966618	-0.088173	-64.966618	-27.481403	27.377030
3.600000	-27.098254	26.884381	-0.090431	-65.900575	-0.090431	-65.900575	-27.115587	26.400008
3.650000	-26.739284	25.906358	-0.092763	-66.835410	-0.092763	-66.835410	-26.756301	25.424354
3.700000	-26.386619	24.929818	-0.095174	-67.771132	-0.095174	-67.771132	-26.403337	24.449960
3.750000	-26.040067	23.954645	-0.097665	-68.707750	-0.097665	-68.707750	-26.056503	23.476721
3.800000	-25.699123	22.980780	-0.100243	-69.645310	-0.100243	-69.645310	-25.715292	22.504579
3.850000	-25.363958	22.008059	-0.102909	-70.583779	-0.102909	-70.583779	-25.379875	21.533391
3.900000	-25.034405	21.036382	-0.105665	-71.523165	-0.105665	-71.523165	-25.050083	20.563065
3.950000	-24.710306	20.065658	-0.108514	-72.463473	-0.108514	-72.463473	-24.725760	19.593517
4.000000	-24.391511	19.095795	-0.111459	-73.404708	-0.111459	-73.404708	-24.406752	18.624665
4.050000	-24.077877	18.126708	-0.114504	-74.346874	-0.114504	-74.346874	-24.092918	17.656430
4.100000	-23.769268	17.158318	-0.117652	-75.289976	-0.117652	-75.289976	-23.784120	16.688741
4.150000	-23.465554	16.190548	-0.120906	-76.234016	-0.120906	-76.234016	-23.480229	15.721524
4.200000	-23.166613	15.223324	-0.124270	-77.178997	-0.124270	-77.178997	-23.181120	14.754715
4.250000	-22.872328	14.256579	-0.127747	-78.124920	-0.127747	-78.124920	-22.886677	13.788249
4.300000	-22.582585	13.290246	-0.131340	-79.071788	-0.131340	-79.071788	-22.596785	12.822067
4.350000	-22.297278	12.324265	-0.135052	-80.019600	-0.135052	-80.019600	-22.311339	11.856112
4.400000	-22.016920	11.358548	-0.138872	-80.968233	-0.138872	-80.968233	-22.030850	10.890314
4.450000	-21.740112	10.393110	-0.142836	-81.917942	-0.142836	-81.917942	-21.753918	9.924663
4.500000	-21.467451	9.427860	-0.146929	-82.868592	-0.146929	-82.868592	-21.481142	8.959086
4.550000	-21.198849	8.462750	-0.151157	-83.820181	-0.151157	-83.820181	-21.212431	7.993540
4.600000	-20.934219	7.497737	-0.155522	-84.772705	-0.155522	-84.772705	-20.947699	7.027984
4.650000	-20.673481	6.532780	-0.160028	-85.726159	-0.160028	-85.726159	-20.686865	6.062379
4.700000	-20.416556	5.567842	-0.164678	-86.680539	-0.164678	-86.680539	-20.429850	5.096692
4.750000	-20.163368	4.602888	-0.169476	-87.635840	-0.169476	-87.635840	-20.176579	4.130890
4.800000	-19.913846	3.637887	-0.174425	-88.592053	-0.174425	-88.592053	-19.926978	3.164944
4.850000	-19.667921	2.672813	-0.179529	-89.549172	-0.179529	-89.549172	-19.680979	2.198828
4.900000	-19.425527	1.707638	-0.184792	-90.507189	-0.184792	-90.507189	-19.438516	1.232519
4.950000	-19.186599	0.742343	-0.190217	-91.466094	-0.190217	-91.466094	-19.199523	0.265997
5.000000	-18.951077	-0.223093	-0.195807	-92.425876	-0.195807	-92.425876	-18.963941	-0.700758
5.050000	-18.718841	-1.188689	-0.201569	-93.386545	-0.201569	-93.386545	-18.731649	-1.667764
5.100000	-18.489901	-2.154454	-0.207504	-94.348068	-0.207504	-94.348068	-18.502656	-2.635029
5.150000	-18.264202	-3.120400	-0.213614	-95.310433	-0.213614	-95.310433	-18.276908	-3.602563
5.200000	-18.041692	-4.086534	-0.219903	-96.273627	-0.219903	-96.273627	-18.054353	-4.570373
5.250000	-17.822320	-5.052861	-0.226375	-97.237634	-0.226375	-97.237634	-17.834938	-5.538462
5.300000	-17.606037	-6.019382	-0.233032	-98.202440	-0.233032	-98.202440	-17.618616	-6.506833
5.350000	-17.392797	-6.986098	-0.239878	-99.168029	-0.239878	-99.168029	-17.405340	-7.475485
5.400000	-17.182553	-7.953005	-0.246915	-100.134383	-0.246915	-100.134383	-17.195063	-8.444414
5.450000	-16.975263	-8.920098	-0.254148	-101.101484	-0.254148	-101.101484	-16.987742	-9.413616
5.500000	-16.770884	-9.887370	-0.261578	-102.069313	-0.261578	-102.069313	-16.783335	-10.383082
5.550000	-16.569374	-10.854810	-0.269209	-103.037851	-0.269209	-103.037851	-16.581800	-11.352802
5.600000	-16.370694	-11.822406	-0.277043	-104.007078	-0.277043	-104.007078	-16.383097	-12.322765
5.650000	-16.174789	-12.790145	-0.285086	-104.976979	-0.285086	-104.976979	-16.187171	-13.292957
5.700000	-15.981623	-13.758010	-0.293339	-105.947531	-0.293339	-105.947531	-15.993987	-14.263363
5.750000	-15.791180	-14.725981	-0.301805	-106.918704	-0.301805	-106.918704	-15.803528	-15.233961
5.800000	-15.603423	-15.694037	-0.310484	-107.890473	-0.310484	-107.890473	-15.615758	-16.204730
5.850000	-15.418319	-16.662155	-0.319380	-108.862816	-0.319380	-108.862816	-15.430643	-17.175649
5.900000	-15.235834	-17.630312	-0.328494	-109.835705	-0.328494	-109.835705	-15.248150	-18.146693
5.950000	-15.055937	-18.598481	-0.337828	-110.809115	-0.337828	-110.809115	-15.068246	-19.117838
6.000000	-14.878594	-19.566636	-0.347386	-111.783020	-0.347386	-111.783020	-14.890899	-20.089055
6.050000	-14.703777	-20.534746	-0.357167	-112.757391	-0.357167	-112.757391	-14.716080	-21.060316
6.100000	-14.531454	-21.502783	-0.367175	-113.732200	-0.367175	-113.732200	-14.543759	-22.031592
6.150000	-14.361597	-22.470714	-0.377411	-114.707419	-0.377411	-114.707419	-14.373905	-23.002850
6.200000	-14.194177	-23.438506	-0.387876	-115.683018	-0.387876	-115.683018	-14.206491	-23.974058
6.250000	-14.029165	-24.406126	-0.398571	-116.658967	-0.398571	-116.658967	-14.041488	-24.945183
6.300000	-13.866522	-25.373534	-0.409503	-117.635242	-0.409503	-117.635242	-13.878856	-25.916187
6.350000	-13.706236	-26.340696	-0.420667	-118.611802	-0.420667	-118.611802	-13.718584	-26.887035
6.400000	-13.548282	-27.307578	-0.432065	-119.588618	-0.432065	-119.588618	-13.560647	-27.857692
6.450000	-13.392633	-28.274140	-0.443698	-120.565655	-0.443698	-120.565655	-13.405018	-28.828120
6.500000	-13.239241	-29.240325	-0.455577	-121.542891	-0.455577	-121.542891	-13.251649	-29.798265
6.550000	-13.088127	-30.206129	-0.467682	-122.520274	-0.467682	-122.520274	-13.100560	-30.768115
6.600000	-12.939245	-31.171498	-0.480022	-123.497779	-0.480022	-123.497779	-12.951707	-31.737621
6.650000	-12.792571	-32.136393	-0.492597	-124.475371	-0.492597	-124.475371	-12.805064	-32.706743
6.700000	-12.648081	-33.100774	-0.505408	-125.453017	-0.505408	-125.453017	-12.660609	-33.675443
6.750000	-12.505752	-34.064602	-0.518454	-126.430682	-0.518454	-126.430682	-12.518319	-34.643680
6.800000	-12.365562	-35.027837	-0.531734	-127.408330	-0.531734	-127.408330	-12.378169	-35.611415
6.850000	-12.227487	-35.990440	-0.545248	-128.385927	-0.545248	-128.385927	-12.240139	-36.578609
6.900000	-12.091506	-36.952371	-0.558994	-129.363438	-0.558994	-129.363438	-12.104205	-37.545223
6.950000	-11.957596	-37.913591	-0.572972	-130.340827	-0.572972	-130.340827	-11.970347	-38.511217
7.000000	-11.825736	-38.874061	-0.587181	-131.318059	-0.587181	-131.318059	-11.838541	-39.476553
7.050000	-11.695905	-39.833742	-0.601618	-132.295097	-0.601618	-132.295097	-11.708768	-40.441193
7.100000	-11.568082	-40.792597	-0.616283	-133.271907	-0.616283	-133.271907	-11.581006	-41.405098
7.150000	-11.442246	-41.750587	-0.631174	-134.248452	-0.631174	-134.248452	-11.455234	-42.368231
7.200000	-11.318376	-42.707676	-0.646288	-135.224698	-0.646288	-135.224698	-11.331433	-43.330555
7.250000	-11.196454	-43.663827	-0.661624	-136.200608	-0.661624	-136.200608	-11.209581	-44.292035
7.300000	-11.076458	-44.619003	-0.677178	-137.176148	-0.677178	-137.176148	-11.089660	-45.252635
7.350000	-10.958370	-45.573171	-0.692949	-138.151283	-0.692949	-138.151283	-10.971649	-46.212320
7.400000	-10.842170	-46.526295	-0.708933	-139.125977	-0.708933	-139.125977	-10.855530	-47.171056
7.450000	-10.727839	-47.478342	-0.725127	-140.100195	-0.725127	-140.100195	-10.741283	-48.128811
7.500000	-10.615358	-48.429279	-0.741529	-141.073905	-0.741529	-141.073905	-10.628890	-49.085552
7.550000	-10.504729	-49.379023	-0.758143	-142.047046	-0.758143	-142.047046	-10.518350	-50.041203
7.600000	-10.395915	-50.327591	-0.774956	-143.019608	-0.774956	-143.019608	-10.409630	-50.995775
7.650000	-10.288900	-51.274954	-0.791965	-143.991557	-0.791965	-143.991557	-10.302711	-51.949242
7.700000	-10.183665	-52.221083	-0.809167	-144.962860	-0.809167	-144.962860	-10.197576	-52.901575
7.750000	-10.080194	-53.165948	-0.826557	-145.933486	-0.826557	-145.933486	-10.094206	-53.852747
7.800000	-9.978468	-54.109524	-0.844130	-146.903404	-0.844130	-146.903404	-9.992585	-54.802732
7.850000	-9.878472	-55.051784	-0.861883	-147.872581	-0.861883	-147.872581	-9.892695	-55.751507
7.900000	-9.780188	-55.992702	-0.879810	-148.840989	-0.879810	-148.840989	-9.794520	-56.699046
7.950000	-9.683600	-56.932254	-0.897907	-149.808598	-0.897907	-149.808598	-9.698044	-57.645329
8.000000	-9.588692	-57.870416	-0.916169	-150.775378	-0.916169	-150.775378	-9.603251	-58.590332
8.050000	-9.495449	-58.807167	-0.934590	-151.741302	-0.934590	-151.741302	-9.510124	-59.534037
8.100000	-9.403855	-59.742483	-0.953165	-152.706343	-0.953165	-152.706343	-9.418648	-60.476422
8.150000	-9.313895	-60.676345	-0.971889	-153.670474	-0.971889	-153.670474	-9.328808	-61.417471
8.200000	-9.225553	-61.608732	-0.990755	-154.633670	-0.990755	-154.633670	-9.240589	-62.357166
8.250000	-9.138817	-62.539624	-1.009758	-155.595905	-1.009758	-155.595905	-9.153977	-63.295489
8.300000	-9.053670	-63.469004	-1.028892	-156.557156	-1.028892	-156.557156	-9.068957	-64.232425
8.350000	-8.970101	-64.396852	-1.048151	-157.517401	-1.048151	-157.517401	-8.985516	-65.167961
8.400000	-8.888094	-65.323152	-1.067529	-158.476617	-1.067529	-158.476617	-8.903640	-66.102081
8.450000	-8.807637	-66.247888	-1.087018	-159.434784	-1.087018	-159.434784	-8.823315	-67.034772
8.500000	-8.728716	-67.171041	-1.106613	-160.391882	-1.106613	-160.391882	-8.744528	-67.966022
8.550000	-8.651320	-68.092598	-1.126306	-161.347892	-1.126306	-161.347892	-8.667268	-68.895819
8.600000	-8.575435	-69.012542	-1.146091	-162.302796	-1.146091	-162.302796	-8.591522	-69.824152
8.650000	-8.501051	-69.930859	-1.165961	-163.256578	-1.165961	-163.256578	-8.517278	-70.751009
8.700000	-8.428154	-70.847534	-1.185909	-164.209223	-1.185909	-164.209223	-8.444524	-71.676381
8.750000	-8.356734	-71.762552	-1.205927	-165.160717	-1.205927	-165.160717	-8.373250	-72.600258
8.800000	-8.286819	-72.675826	-1.226009	-166.110994	-1.226009	-166.110994	-8.303483	-73.522563
8.850000	-8.218361	-73.587413	-1.246147	-167.060095	-1.246147	-167.060095	-8.235176	-74.443353
8.900000	-8.151348	-74.497299	-1.266331	-168.008008	-1.266331	-168.008008	-8.168317	-75.362619
8.950000	-8.085770	-75.405471	-1.286556	-168.954724	-1.286556	-168.954724	-8.102897	-76.280350
9.000000	-8.021618	-76.311913	-1.306813	-169.900235	-1.306813	-169.900235	-8.038907	-77.196538
9.050000	-7.958882	-77.216611	-1.327094	-170.844535	-1.327094	-170.844535	-7.976337	-78.111174
9.100000	-7.897553	-78.119551	-1.347392	-171.787618	-1.347392	-171.787618	-7.915178	-79.024247
9.150000	-7.837621	-79.020716	-1.367699	-172.729481	-1.367699	-172.729481	-7.855422	-79.935748
9.200000	-7.779079	-79.920091	-1.388006	-173.670120	-1.388006	-173.670120	-7.797061	-80.845668
9.250000	-7.721917	-80.817660	-1.408306	-174.609535	-1.408306	-174.609535	-7.740087	-81.753994
9.300000	-7.666128	-81.713407	-1.428590	-175.547725	-1.428590	-175.547725	-7.684491	-82.660717
9.350000	-7.611703	-82.607314	-1.448851	-176.484692	-1.448851	-176.484692	-7.630268	-83.565824
9.400000	-7.558634	-83.499363	-1.469079	-177.420438	-1.469079	-177.420438	-7.577410	-84.469303
9.450000	-7.506916	-84.389535	-1.489268	-178.354968	-1.489268	-178.354968	-7.525910	-85.371140
9.500000	-7.456539	-85.277812	-1.509407	-179.288286	-1.509407	-179.288286	-7.475762	-86.271323
9.550000	-7.407498	-86.164172	-1.529490	179.779599	-1.529490	179.779599	-7.426960	-87.169836
9.600000	-7.359786	-87.048594	-1.549508	178.848681	-1.549508	178.848681	-7.379498	-88.066662
9.650000	-7.313395	-87.931056	-1.569451	177.918949	-1.569451	177.918949	-7.333370	-88.961786
9.700000	-7.268321	-88.811536	-1.589313	176.990391	-1.589313	176.990391	-7.288572	-89.855188
9.750000	-7.224555	-89.690007	-1.609084	176.062997	-1.609084	176.062997	-7.245098	-90.746851
9.800000	-7.182094	-90.566446	-1.628756	175.136751	-1.628756	175.136751	-7.202943	-91.636752
9.850000	-7.140929	-91.440826	-1.648320	174.211639	-1.648320	174.211639	-7.162103	-92.524871
9.900000	-7.101057	-92.313118	-1.667769	173.287643	-1.667769	173.287643	-7.122573	-93.411183
9.950000	-7.062472	-93.183293	-1.687093	172.364746	-1.687093	172.364746	-7.084348	-94.295665
10.000000	-7.025167	-94.051323	-1.706284	171.442927	-1.706284	171.442927	-7.047426	-95.178290
