! freq	dB(S11)	phase(S11)	dB(S12)	phase(S12)	
!     	dB(S21)	phase(S21)	dB(S22)	phase(S22)	
!S-par simulation data
#  GHz  S  DB  R 50
0.000000	-87.897621	0.000000	-0.000350	0.000000	-0.000350	0.000000	-87.897620	0.000000
0.050000	-61.445138	86.228398	-0.000512	-0.908955	-0.000512	-0.908955	-61.444797	86.227518
0.100000	-55.433323	86.585971	-0.000989	-1.817476	-0.000989	-1.817476	-55.433017	86.584091
0.150000	-51.914676	86.040407	-0.001748	-2.725188	-0.001748	-2.725188	-51.914423	86.037652
0.200000	-49.418056	85.281078	-0.002744	-3.631821	-0.002744	-3.631821	-49.417868	85.277570
0.250000	-47.480935	84.444492	-0.003937	-4.537120	-0.003937	-4.537120	-47.480822	84.440365
0.300000	-45.896794	83.583772	-0.005258	-5.441142	-0.005258	-5.441142	-45.896754	83.579143
0.350000	-44.555176	82.715278	-0.006667	-6.343858	-0.006667	-6.343858	-44.555206	82.710254
0.400000	-43.389964	81.848141	-0.008124	-7.245357	-0.008124	-7.245357	-43.390058	81.842811
0.450000	-42.358420	80.986297	-0.009597	-8.145775	-0.009597	-8.145775	-42.358570	80.980728
0.500000	-41.431336	80.131054	-0.011062	-9.045267	-0.011062	-9.045267	-41.431534	80.125294
0.550000	-40.587892	79.282350	-0.012503	-9.943996	-0.012503	-9.943996	-40.588128	79.276428
0.600000	-39.812747	78.439431	-0.013910	-10.842120	-0.013910	-10.842120	-39.813014	78.433363
0.650000	-39.094299	77.601236	-0.015277	-11.739785	-0.015277	-11.739785	-39.094590	77.595028
0.700000	-38.423576	76.766620	-0.016604	-12.637119	-0.016604	-12.637119	-38.423885	76.760271
0.750000	-37.793509	75.934475	-0.017891	-13.534236	-0.017891	-13.534236	-37.793831	75.927978
0.800000	-37.198444	75.103788	-0.019141	-14.431234	-0.019141	-14.431234	-37.198776	75.097136
0.850000	-36.633792	74.273674	-0.020359	-15.328196	-0.020359	-15.328196	-36.634130	74.266857
0.900000	-36.095783	73.443378	-0.021548	-16.225190	-0.021548	-16.225190	-36.096125	73.436385
0.950000	-35.581287	72.612268	-0.022714	-17.122278	-0.022714	-17.122278	-35.581632	72.605091
1.000000	-35.087679	71.779826	-0.023861	-18.019508	-0.023861	-18.019508	-35.088025	71.772458
1.050000	-34.612738	70.945636	-0.024994	-18.916923	-0.024994	-18.916923	-34.613085	70.938071
1.100000	-34.154574	70.109366	-0.026117	-19.814560	-0.026117	-19.814560	-34.154920	70.101598
1.150000	-33.711560	69.270758	-0.027235	-20.712450	-0.027235	-20.712450	-33.711907	69.262783
1.200000	-33.282294	68.429613	-0.028351	-21.610622	-0.028351	-21.610622	-33.282641	68.421431
1.250000	-32.865556	67.585786	-0.029469	-22.509100	-0.029469	-22.509100	-32.865903	67.577395
1.300000	-32.459938	66.739049	-0.030592	-23.407922	-0.030592	-23.407922	-32.460284	66.730449
1.350000	-32.064855	65.889454	-0.031725	-24.307094	-0.031725	-24.307094	-32.065201	65.880647
1.400000	-31.679485	65.036964	-0.032868	-25.206635	-0.032868	-25.206635	-31.679831	65.027953
1.450000	-31.303099	64.181565	-0.034026	-26.106564	-0.034026	-26.106564	-31.303446	64.172353
1.500000	-30.935050	63.323263	-0.035200	-27.006897	-0.035200	-27.006897	-30.935398	63.313853
1.550000	-30.574763	62.462078	-0.036394	-27.907651	-0.036394	-27.907651	-30.575112	62.452475
1.600000	-30.221722	61.598043	-0.037608	-28.808841	-0.037608	-28.808841	-30.222072	61.588251
1.650000	-29.875465	60.731201	-0.038846	-29.710484	-0.038846	-29.710484	-29.875817	60.721226
1.700000	-29.535579	59.861604	-0.040110	-30.612594	-0.040110	-30.612594	-29.535931	59.851452
1.750000	-29.201688	58.989309	-0.041401	-31.515188	-0.041401	-31.515188	-29.202042	58.978985
1.800000	-28.873456	58.114381	-0.042722	-32.418279	-0.042722	-32.418279	-28.873812	58.103891
1.850000	-28.550578	57.236886	-0.044074	-33.321883	-0.044074	-33.321883	-28.550935	57.226235
1.900000	-28.232777	56.356895	-0.045460	-34.226015	-0.045460	-34.226015	-28.233136	56.346089
1.950000	-27.919801	55.474479	-0.046881	-35.130689	-0.046881	-35.130689	-27.920162	55.463525
2.000000	-27.611422	54.589712	-0.048339	-36.035921	-0.048339	-36.035921	-27.611784	54.578616
2.050000	-27.307432	53.702670	-0.049837	-36.941726	-0.049837	-36.941726	-27.307796	53.691437
2.100000	-27.007640	52.813425	-0.051377	-37.848117	-0.051377	-37.848117	-27.008005	52.802061
2.150000	-26.711871	51.922054	-0.052960	-38.755109	-0.052960	-38.755109	-26.712237	51.910565
2.200000	-26.419965	51.028629	-0.054588	-39.662718	-0.054588	-39.662718	-26.420333	51.017020
2.250000	-26.131778	50.133223	-0.056264	-40.570957	-0.056264	-40.570957	-26.132147	50.121500
2.300000	-25.847172	49.235908	-0.057990	-41.479840	-0.057990	-41.479840	-25.847542	49.224076
2.350000	-25.566025	48.336753	-0.059767	-42.389383	-0.059767	-42.389383	-25.566397	48.324818
2.400000	-25.288223	47.435827	-0.061599	-43.299599	-0.061599	-43.299599	-25.288595	47.423793
2.450000	-25.013658	46.533194	-0.063488	-44.210502	-0.063488	-44.210502	-25.014031	46.521066
2.500000	-24.742235	45.628920	-0.065435	-45.122105	-0.065435	-45.122105	-24.742608	45.616703
2.550000	-24.473634	44.723001	-0.067447	-46.034454	-0.067447	-46.034454	-24.474008	44.710699
2.600000	-24.208008	43.815565	-0.069523	-46.947532	-0.069523	-46.947532	-24.208382	43.803183
2.650000	-23.945278	42.906670	-0.071665	-47.861351	-0.071665	-47.861351	-23.945653	42.894213
2.700000	-23.685374	41.996370	-0.073877	-48.775924	-0.073877	-48.775924	-23.685749	41.983841
2.750000	-23.428226	41.084717	-0.076161	-49.691264	-0.076161	-49.691264	-23.428601	41.072119
2.800000	-23.173771	40.171759	-0.078519	-50.607383	-0.078519	-50.607383	-23.174146	40.159097
2.850000	-22.921952	39.257543	-0.080955	-51.524292	-0.080955	-51.524292	-22.922327	39.244820
2.900000	-22.672712	38.342113	-0.083472	-52.442003	-0.083472	-52.442003	-22.673087	38.329333
2.950000	-22.426001	37.425511	-0.086072	-53.360527	-0.086072	-53.360527	-22.426375	37.412676
3.000000	-22.181769	36.507774	-0.088759	-54.279874	-0.088759	-54.279874	-22.182143	36.494888
3.050000	-21.939972	35.588941	-0.091536	-55.200055	-0.091536	-55.200055	-21.940345	35.576006
3.100000	-21.700567	34.669045	-0.094405	-56.121080	-0.094405	-56.121080	-21.700939	34.656064
3.150000	-21.463514	33.748118	-0.097370	-57.042956	-0.097370	-57.042956	-21.463885	33.735095
3.200000	-21.228774	32.826190	-0.100434	-57.965694	-0.100434	-57.965694	-21.229144	32.813127
3.250000	-20.996313	31.903289	-0.103602	-58.889302	-0.103602	-58.889302	-20.996682	31.890188
3.300000	-20.766096	30.979441	-0.106875	-59.813787	-0.106875	-59.813787	-20.766464	30.966304
3.350000	-20.538093	30.054669	-0.110258	-60.739157	-0.110258	-60.739157	-20.538459	30.041499
3.400000	-20.312272	29.128996	-0.113753	-61.665418	-0.113753	-61.665418	-20.312637	29.115794
3.450000	-20.088605	28.202441	-0.117366	-62.592576	-0.117366	-62.592576	-20.088970	28.189210
3.500000	-19.867067	27.275023	-0.121099	-63.520637	-0.121099	-63.520637	-19.867430	27.261765
3.550000	-19.647630	26.346760	-0.124956	-64.449605	-0.124956	-64.449605	-19.647992	26.333476
3.600000	-19.430271	25.417667	-0.128940	-65.379484	-0.128940	-65.379484	-19.430632	25.404359
3.650000	-19.214967	24.487759	-0.133056	-66.310279	-0.133056	-66.310279	-19.215326	24.474429
3.700000	-19.001696	23.557049	-0.137308	-67.241992	-0.137308	-67.241992	-19.002054	23.543699
3.750000	-18.790437	22.625550	-0.141698	-68.174625	-0.141698	-68.174625	-18.790794	22.612180
3.800000	-18.581072	21.693248	-0.146237	-69.108210	-0.146237	-69.108210	-18.581427	21.679860
3.850000	-18.373686	20.760179	-0.150923	-70.042716	-0.150923	-70.042716	-18.374040	20.746775
3.900000	-18.168261	19.826353	-0.155760	-70.978145	-0.155760	-70.978145	-18.168613	19.812934
3.950000	-17.964779	18.891780	-0.160753	-71.914495	-0.160753	-71.914495	-17.965129	18.878346
4.000000	-17.763224	17.956467	-0.165905	-72.851764	-0.165905	-72.851764	-17.763573	17.943021
4.050000	-17.563580	17.020425	-0.171221	-73.789950	-0.171221	-73.789950	-17.563928	17.006967
4.100000	-17.365834	16.083661	-0.176704	-74.729049	-0.176704	-74.729049	-17.366180	16.070193
4.150000	-17.169970	15.146183	-0.182359	-75.669059	-0.182359	-75.669059	-17.170315	15.132705
4.200000	-16.975975	14.207999	-0.188190	-76.609972	-0.188190	-76.609972	-16.976318	14.194513
4.250000	-16.783835	13.269118	-0.194201	-77.551784	-0.194201	-77.551784	-16.784178	13.255625
4.300000	-16.593540	12.329549	-0.200396	-78.494488	-0.200396	-78.494488	-16.593880	12.316048
4.350000	-16.405076	11.389299	-0.206780	-79.438077	-0.206780	-79.438077	-16.405415	11.375792
4.400000	-16.218408	10.448371	-0.213358	-80.382551	-0.213358	-80.382551	-16.218746	10.434859
4.450000	-16.033529	9.506775	-0.220136	-81.327901	-0.220136	-81.327901	-16.033866	9.493258
4.500000	-15.850451	8.564527	-0.227114	-82.274106	-0.227114	-82.274106	-15.850787	8.551007
4.550000	-15.669166	7.621640	-0.234297	-83.221156	-0.234297	-83.221156	-15.669499	7.608116
4.600000	-15.489662	6.678123	-0.241690	-84.169038	-0.241690	-84.169038	-15.489994	6.664598
4.650000	-15.311930	5.733990	-0.249296	-85.117740	-0.249296	-85.117740	-15.312262	5.720463
4.700000	-15.135963	4.789254	-0.257120	-86.067247	-0.257120	-86.067247	-15.136293	4.775725
4.750000	-14.961750	3.843927	-0.265165	-87.017545	-0.265165	-87.017545	-14.962079	3.830398
4.800000	-14.789284	2.898027	-0.273436	-87.968617	-0.273436	-87.968617	-14.789612	2.884497
4.850000	-14.618557	1.951567	-0.281936	-88.920447	-0.281936	-88.920447	-14.618883	1.938037
4.900000	-14.449560	1.004565	-0.290669	-89.873016	-0.290669	-89.873016	-14.449885	0.991036
4.950000	-14.282287	0.057040	-0.299640	-90.826307	-0.299640	-90.826307	-14.282611	0.043512
5.000000	-14.116730	-0.890990	-0.308852	-91.780299	-0.308852	-91.780299	-14.117052	-0.904517
5.050000	-13.952852	-1.839515	-0.318313	-92.734986	-0.318313	-92.734986	-13.953173	-1.853040
5.100000	-13.790678	-2.788501	-0.328024	-93.690332	-0.328024	-93.690332	-13.790998	-2.802024
5.150000	-13.630202	-3.737926	-0.337986	-94.646313	-0.337986	-94.646313	-13.630521	-3.751447
5.200000	-13.471417	-4.687765	-0.348205	-95.602907	-0.348205	-95.602907	-13.471735	-4.701284
5.250000	-13.314316	-5.637994	-0.358683	-96.560089	-0.358683	-96.560089	-13.314632	-5.651510
5.300000	-13.158893	-6.588586	-0.369423	-97.517833	-0.369423	-97.517833	-13.159208	-6.602099
5.350000	-13.005141	-7.539513	-0.380429	-98.476114	-0.380429	-98.476114	-13.005455	-7.553023
5.400000	-12.853055	-8.490745	-0.391705	-99.434904	-0.391705	-99.434904	-12.853368	-8.504252
5.450000	-12.702627	-9.442252	-0.403252	-100.394175	-0.403252	-100.394175	-12.702939	-9.455757
5.500000	-12.553853	-10.394004	-0.415075	-101.353899	-0.415075	-101.353899	-12.554164	-10.407505
5.550000	-12.406725	-11.345966	-0.427175	-102.314047	-0.427175	-102.314047	-12.407035	-11.359464
5.600000	-12.261238	-12.298105	-0.439556	-103.274587	-0.439556	-103.274587	-12.261547	-12.311600
5.650000	-12.117378	-13.250386	-0.452224	-104.235491	-0.452224	-104.235491	-12.117686	-13.263878
5.700000	-11.975140	-14.202773	-0.465180	-105.196728	-0.465180	-105.196728	-11.975447	-14.216261
5.750000	-11.834527	-15.155225	-0.478425	-106.158259	-0.478425	-106.158259	-11.834832	-15.168710
5.800000	-11.695532	-16.107704	-0.491959	-107.120052	-0.491959	-107.120052	-11.695836	-16.121186
5.850000	-11.558149	-17.060170	-0.505787	-108.082072	-0.505787	-108.082072	-11.558452	-17.073650
5.900000	-11.422372	-18.012583	-0.519909	-109.044284	-0.519909	-109.044284	-11.422674	-18.026060
5.950000	-11.288194	-18.964900	-0.534327	-110.006652	-0.534327	-110.006652	-11.288495	-18.978375
6.000000	-11.155610	-19.917080	-0.549043	-110.969140	-0.549043	-110.969140	-11.155910	-19.930552
6.050000	-11.024612	-20.869078	-0.564058	-111.931712	-0.564058	-111.931712	-11.024911	-20.882549
6.100000	-10.895195	-21.820851	-0.579373	-112.894329	-0.579373	-112.894329	-10.895492	-21.834320
6.150000	-10.767350	-22.772353	-0.594991	-113.856955	-0.594991	-113.856955	-10.767647	-22.785821
6.200000	-10.641073	-23.723539	-0.610911	-114.819549	-0.610911	-114.819549	-10.641368	-23.737005
6.250000	-10.516354	-24.674362	-0.627134	-115.782074	-0.627134	-115.782074	-10.516649	-24.687828
6.300000	-10.393183	-25.624762	-0.643671	-116.744485	-0.643671	-116.744485	-10.393476	-25.638227
6.350000	-10.271560	-26.574701	-0.660512	-117.706745	-0.660512	-117.706745	-10.271852	-26.588167
6.400000	-10.151477	-27.524133	-0.677657	-118.668812	-0.677657	-118.668812	-10.151768	-27.537599
6.450000	-10.032928	-28.473009	-0.695108	-119.630648	-0.695108	-119.630648	-10.033218	-28.486476
6.500000	-9.915904	-29.421282	-0.712862	-120.592210	-0.712862	-120.592210	-9.916193	-29.434749
6.550000	-9.800398	-30.368901	-0.730921	-121.553458	-0.730921	-121.553458	-9.800686	-30.382371
6.600000	-9.686402	-31.315820	-0.749284	-122.514351	-0.749284	-122.514351	-9.686688	-31.329292
6.650000	-9.573908	-32.261989	-0.767950	-123.474847	-0.767950	-123.474847	-9.574193	-32.275463
6.700000	-9.462908	-33.207359	-0.786917	-124.434905	-0.786917	-124.434905	-9.463192	-33.220836
6.750000	-9.353393	-34.151883	-0.806186	-125.394483	-0.806186	-125.394483	-9.353676	-34.165363
6.800000	-9.245355	-35.095510	-0.825754	-126.353539	-0.825754	-126.353539	-9.245637	-35.108995
6.850000	-9.138785	-36.038195	-0.845621	-127.312032	-0.845621	-127.312032	-9.139067	-36.051684
6.900000	-9.033676	-36.979887	-0.865783	-128.269921	-0.865783	-128.269921	-9.033956	-36.993381
6.950000	-8.930017	-37.920541	-0.886241	-129.227163	-0.886241	-129.227163	-8.930296	-37.934041
7.000000	-8.827800	-38.860109	-0.906990	-130.183718	-0.906990	-130.183718	-8.828078	-38.873614
7.050000	-8.727016	-39.798543	-0.928030	-131.139544	-0.928030	-131.139544	-8.727293	-39.812056
7.100000	-8.627655	-40.735800	-0.949357	-132.094600	-0.949357	-132.094600	-8.627931	-40.749319
7.150000	-8.529708	-41.671831	-0.970969	-133.048847	-0.970969	-133.048847	-8.529984	-41.685359
7.200000	-8.433167	-42.606594	-0.992863	-134.002242	-0.992863	-134.002242	-8.433442	-42.620130
7.250000	-8.338020	-43.540044	-1.015036	-134.954748	-1.015036	-134.954748	-8.338294	-43.553589
7.300000	-8.244259	-44.472138	-1.037485	-135.906322	-1.037485	-135.906322	-8.244532	-44.485692
7.350000	-8.151874	-45.402832	-1.060205	-136.856928	-1.060205	-136.856928	-8.152146	-45.416396
7.400000	-8.060855	-46.332087	-1.083195	-137.806525	-1.083195	-137.806525	-8.061126	-46.345661
7.450000	-7.971191	-47.259860	-1.106448	-138.755075	-1.106448	-138.755075	-7.971462	-47.273445
7.500000	-7.882874	-48.186112	-1.129963	-139.702542	-1.129963	-139.702542	-7.883144	-48.199709
7.550000	-7.795913	-49.110735	-1.153741	-140.648837	-1.153741	-140.648837	-7.796182	-49.124344
7.600000	-7.710279	-50.033757	-1.177771	-141.593971	-1.177771	-141.593971	-7.710547	-50.047379
7.650000	-7.625961	-50.955141	-1.202048	-142.537909	-1.202048	-142.537909	-7.626229	-50.968777
7.700000	-7.542951	-51.874853	-1.226567	-143.480615	-1.226567	-143.480615	-7.543218	-51.888503
7.750000	-7.461237	-52.792857	-1.251323	-144.422055	-1.251323	-144.422055	-7.461503	-52.806522
7.800000	-7.380808	-53.709121	-1.276311	-145.362197	-1.276311	-145.362197	-7.381074	-53.722801
7.850000	-7.301655	-54.623611	-1.301525	-146.301006	-1.301525	-146.301006	-7.301921	-54.637307
7.900000	-7.223767	-55.536298	-1.326961	-147.238452	-1.326961	-147.238452	-7.224032	-55.550010
7.950000	-7.147134	-56.447151	-1.352612	-148.174503	-1.352612	-148.174503	-7.147398	-56.460879
8.000000	-7.071745	-57.356140	-1.378473	-149.109130	-1.378473	-149.109130	-7.072009	-57.369887
8.050000	-6.997590	-58.263240	-1.404538	-150.042302	-1.404538	-150.042302	-6.997853	-58.277004
8.100000	-6.924658	-59.168422	-1.430801	-150.973993	-1.430801	-150.973993	-6.924921	-59.182206
8.150000	-6.852939	-60.071663	-1.457256	-151.904175	-1.457256	-151.904175	-6.853202	-60.085465
8.200000	-6.782424	-60.972937	-1.483897	-152.832822	-1.483897	-152.832822	-6.782686	-60.986759
8.250000	-6.713101	-61.872221	-1.510717	-153.759908	-1.510717	-153.759908	-6.713363	-61.886064
8.300000	-6.644961	-62.769494	-1.537709	-154.685410	-1.537709	-154.685410	-6.645222	-62.783358
8.350000	-6.577993	-63.664734	-1.564867	-155.609304	-1.564867	-155.609304	-6.578254	-63.678620
8.400000	-6.512187	-64.557922	-1.592184	-156.531569	-1.592184	-156.531569	-6.512448	-64.571830
8.450000	-6.447534	-65.449039	-1.619653	-157.452183	-1.619653	-157.452183	-6.447794	-65.462970
8.500000	-6.384024	-66.338067	-1.647268	-158.371128	-1.647268	-158.371128	-6.384284	-66.352021
8.550000	-6.321646	-67.224990	-1.675021	-159.288384	-1.675021	-159.288384	-6.321906	-67.238968
8.600000	-6.260391	-68.109791	-1.702905	-160.203933	-1.702905	-160.203933	-6.260651	-68.123794
8.650000	-6.200250	-68.992456	-1.730912	-161.117761	-1.730912	-161.117761	-6.200509	-69.006485
8.700000	-6.141213	-69.872971	-1.759036	-162.029852	-1.759036	-162.029852	-6.141472	-69.887025
8.750000	-6.083271	-70.751322	-1.787269	-162.940191	-1.787269	-162.940191	-6.083529	-70.765404
8.800000	-6.026445	-71.627403	-1.815604	-163.848689	-1.815604	-163.848689	-6.026703	-71.641512
8.850000	-5.970696	-72.501297	-1.844031	-164.755411	-1.844031	-164.755411	-5.970954	-72.515434
8.900000	-5.916015	-73.372991	-1.872545	-165.660346	-1.872545	-165.660346	-5.916272	-73.387157
8.950000	-5.862393	-74.242478	-1.901136	-166.563486	-1.901136	-166.563486	-5.862650	-74.256673
9.000000	-5.809821	-75.109746	-1.929797	-167.464823	-1.929797	-167.464823	-5.810077	-75.123973
9.050000	-5.758290	-75.974789	-1.958520	-168.364351	-1.958520	-168.364351	-5.758547	-75.989047
9.100000	-5.707793	-76.837598	-1.987299	-169.262064	-1.987299	-169.262064	-5.708049	-76.851887
9.150000	-5.658321	-77.698165	-2.016123	-170.157959	-2.016123	-170.157959	-5.658576	-77.712487
9.200000	-5.609865	-78.556484	-2.044987	-171.052033	-2.044987	-171.052033	-5.610120	-78.570840
9.250000	-5.562417	-79.412547	-2.073882	-171.944283	-2.073882	-171.944283	-5.562672	-79.426938
9.300000	-5.515970	-80.266350	-2.102800	-172.834711	-2.102800	-172.834711	-5.516225	-80.280776
9.350000	-5.470517	-81.117886	-2.131732	-173.723316	-2.131732	-173.723316	-5.470770	-81.132349
9.400000	-5.426048	-81.967150	-2.160672	-174.610102	-2.160672	-174.610102	-5.426302	-81.981649
9.450000	-5.382558	-82.814136	-2.189611	-175.495071	-2.189611	-175.495071	-5.382811	-82.828674
9.500000	-5.340039	-83.658840	-2.218542	-176.378228	-2.218542	-176.378228	-5.340291	-83.673417
9.550000	-5.298482	-84.501257	-2.247455	-177.259578	-2.247455	-177.259578	-5.298734	-84.515875
9.600000	-5.257883	-85.341382	-2.276344	-178.139129	-2.276344	-178.139129	-5.258134	-85.356042
9.650000	-5.218233	-86.179212	-2.305200	-179.016890	-2.305200	-179.016890	-5.218484	-86.193914
9.700000	-5.179527	-87.014741	-2.334015	-179.892868	-2.334015	-179.892868	-5.179777	-87.029486
9.750000	-5.141756	-87.847965	-2.362782	179.232924	-2.362782	179.232924	-5.142006	-87.862755
9.800000	-5.104916	-88.678879	-2.391493	178.360476	-2.391493	178.360476	-5.105165	-88.693715
9.850000	-5.069000	-89.507480	-2.420139	177.489774	-2.420139	177.489774	-5.069248	-89.522363
9.900000	-5.034002	-90.333762	-2.448713	176.620804	-2.448713	176.620804	-5.034249	-90.348694
9.950000	-4.999915	-91.157721	-2.477207	175.753552	-2.477207	175.753552	-5.000162	-91.172703
10.000000	-4.966734	-91.979351	-2.505613	174.888001	-2.505613	174.888001	-4.966980	-91.994385
