! freq	dB(S11)	phase(S11)	dB(S12)	phase(S12)	
!     	dB(S21)	phase(S21)	dB(S22)	phase(S22)	
!S-par simulation data
#  GHz  S  DB  R 50
0.000000	-0.000000	0.000000	-332.072953	0.000000	-332.072953	0.000000	-0.000000	0.000000
0.050000	-0.000107	-0.863060	-64.252920	88.711569	-64.252920	88.711569	-0.000107	-0.862895
0.100000	-0.000423	-1.725869	-58.273730	87.560706	-58.273730	87.560706	-0.000423	-1.725538
0.150000	-0.000936	-2.588193	-54.797975	86.568030	-54.797975	86.568030	-0.000936	-2.587697
0.200000	-0.001629	-3.449835	-52.339324	85.682199	-52.339324	85.682199	-0.001628	-3.449174
0.250000	-0.002488	-4.310571	-50.433615	84.854749	-50.433615	84.854749	-0.002487	-4.309745
0.300000	-0.003474	-5.170352	-48.875234	84.048713	-48.875234	84.048713	-0.003474	-5.169361
0.350000	-0.004572	-6.029053	-47.556536	83.250347	-47.556536	83.250347	-0.004572	-6.027897
0.400000	-0.005757	-6.886617	-46.413460	82.451906	-46.413460	82.451906	-0.005756	-6.885296
0.450000	-0.007006	-7.743016	-45.404848	81.650239	-45.404848	81.650239	-0.007005	-7.741531
0.500000	-0.008302	-8.598248	-44.502631	80.844381	-44.502631	80.844381	-0.008301	-8.596598
0.550000	-0.009627	-9.452324	-43.686775	80.034343	-43.686775	80.034343	-0.009626	-9.450510
0.600000	-0.010968	-10.305270	-42.942467	79.220539	-42.942467	79.220539	-0.010967	-10.303292
0.650000	-0.012315	-11.157114	-42.258435	78.403518	-42.258435	78.403518	-0.012313	-11.154973
0.700000	-0.013659	-12.007888	-41.625901	77.583846	-41.625901	77.583846	-0.013657	-12.005584
0.750000	-0.014995	-12.857622	-41.037891	76.762054	-41.037891	76.762054	-0.014993	-12.855156
0.800000	-0.016319	-13.706342	-40.488771	75.938621	-40.488771	75.938621	-0.016316	-13.703713
0.850000	-0.017628	-14.554071	-39.973926	75.113971	-39.973926	75.113971	-0.017625	-14.551280
0.900000	-0.018921	-15.400824	-39.489525	74.288478	-39.489525	74.288478	-0.018918	-15.397872
0.950000	-0.020198	-16.246615	-39.032355	73.462473	-39.032355	73.462473	-0.020195	-16.243502
1.000000	-0.021459	-17.091449	-38.599693	72.636244	-38.599693	72.636244	-0.021456	-17.088175
1.050000	-0.022705	-17.935327	-38.189211	71.810048	-38.189211	71.810048	-0.022702	-17.931893
1.100000	-0.023937	-18.778247	-37.798905	70.984115	-37.798905	70.984115	-0.023933	-18.774653
1.150000	-0.025156	-19.620203	-37.427035	70.158649	-37.427035	70.158649	-0.025152	-19.616449
1.200000	-0.026363	-20.461183	-37.072081	69.333835	-37.072081	69.333835	-0.026358	-20.457270
1.250000	-0.027559	-21.301176	-36.732708	68.509841	-36.732708	68.509841	-0.027555	-21.297104
1.300000	-0.028746	-22.140122	-36.407810	67.686869	-36.407810	67.686869	-0.028742	-22.135891
1.350000	-0.029926	-22.978046	-36.096266	66.865022	-36.096266	66.865022	-0.029921	-22.973657
1.400000	-0.031099	-23.814930	-35.797141	66.044431	-35.797141	66.044431	-0.031094	-23.810383
1.450000	-0.032266	-24.650753	-35.509599	65.225215	-35.509599	65.225215	-0.032261	-24.646049
1.500000	-0.033429	-25.485495	-35.232886	64.407485	-35.232886	64.407485	-0.033423	-25.480634
1.550000	-0.034588	-26.319134	-34.966323	63.591349	-34.966323	63.591349	-0.034583	-26.314117
1.600000	-0.035745	-27.151649	-34.709294	62.776904	-34.709294	62.776904	-0.035739	-27.146475
1.650000	-0.036899	-27.983016	-34.461238	61.964245	-34.461238	61.964245	-0.036893	-27.977687
1.700000	-0.038052	-28.812796	-34.222207	61.154154	-34.222207	61.154154	-0.038046	-28.807312
1.750000	-0.039204	-29.641958	-33.990389	60.345072	-33.990389	60.345072	-0.039198	-29.636320
1.800000	-0.040357	-30.469632	-33.766500	59.538513	-33.766500	59.538513	-0.040351	-30.463838
1.850000	-0.041510	-31.296241	-33.549563	58.733757	-33.549563	58.733757	-0.041503	-31.290294
1.900000	-0.042663	-32.121526	-33.339519	57.931327	-33.339519	57.931327	-0.042656	-32.115426
1.950000	-0.043818	-32.945487	-33.136002	57.131224	-33.136002	57.131224	-0.043811	-32.939234
2.000000	-0.044974	-33.768306	-32.938459	56.333185	-32.938459	56.333185	-0.044967	-33.761901
2.050000	-0.046132	-34.589526	-32.747111	55.538034	-32.747111	55.538034	-0.046125	-34.582969
2.100000	-0.047291	-35.410043	-32.560659	54.744181	-32.560659	54.744181	-0.047284	-35.403333
2.150000	-0.048454	-36.228732	-32.380084	53.953703	-32.380084	53.953703	-0.048447	-36.221872
2.200000	-0.049620	-37.046039	-32.204630	53.165812	-32.204630	53.165812	-0.049612	-37.039029
2.250000	-0.050788	-37.861946	-32.034080	52.380564	-32.034080	52.380564	-0.050781	-37.854785
2.300000	-0.051960	-38.676433	-31.868229	51.598017	-31.868229	51.598017	-0.051952	-38.669123
2.350000	-0.053136	-39.489482	-31.706883	50.818224	-31.706883	50.818224	-0.053128	-39.482023
2.400000	-0.054316	-40.301075	-31.549863	50.041237	-31.549863	50.041237	-0.054307	-40.293469
2.450000	-0.055499	-41.111197	-31.396997	49.267108	-31.396997	49.267108	-0.055491	-41.103442
2.500000	-0.056687	-41.919830	-31.248127	48.495886	-31.248127	48.495886	-0.056679	-41.911928
2.550000	-0.057880	-42.726892	-31.103157	47.727750	-31.103157	47.727750	-0.057872	-42.718843
2.600000	-0.059078	-43.532432	-30.961885	46.962619	-30.961885	46.962619	-0.059069	-43.524237
2.650000	-0.060282	-44.336435	-30.824175	46.200538	-30.824175	46.200538	-0.060273	-44.328095
2.700000	-0.061490	-45.138888	-30.689899	45.441551	-30.689899	45.441551	-0.061481	-45.130402
2.750000	-0.062705	-45.939776	-30.558933	44.685700	-30.558933	44.685700	-0.062696	-45.931146
2.800000	-0.063926	-46.739085	-30.431162	43.933024	-30.431162	43.933024	-0.063916	-46.730311
2.850000	-0.065153	-47.536804	-30.306474	43.183565	-30.306474	43.183565	-0.065143	-47.527887
2.900000	-0.066387	-48.332920	-30.184764	42.437360	-30.184764	42.437360	-0.066377	-48.323860
2.950000	-0.067627	-49.127421	-30.065932	41.694446	-30.065932	41.694446	-0.067617	-49.118218
3.000000	-0.068875	-49.920295	-29.949881	40.954859	-29.949881	40.954859	-0.068865	-49.910951
3.050000	-0.070131	-50.711533	-29.836520	40.218634	-29.836520	40.218634	-0.070121	-50.702048
3.100000	-0.071395	-51.501124	-29.725759	39.485804	-29.725759	39.485804	-0.071384	-51.491498
3.150000	-0.072667	-52.289058	-29.617516	38.756401	-29.617516	38.756401	-0.072656	-52.279292
3.200000	-0.073948	-53.075327	-29.511709	38.030457	-29.511709	38.030457	-0.073937	-53.065420
3.250000	-0.075238	-53.859921	-29.408260	37.308002	-29.408260	37.308002	-0.075227	-53.849875
3.300000	-0.076537	-54.642832	-29.307094	36.589064	-29.307094	36.589064	-0.076526	-54.632648
3.350000	-0.077848	-55.423757	-29.208320	35.874297	-29.208320	35.874297	-0.077836	-55.413435
3.400000	-0.079169	-56.202911	-29.111729	35.163257	-29.111729	35.163257	-0.079157	-56.192451
3.450000	-0.080496	-56.981173	-29.016724	34.454104	-29.016724	34.454104	-0.080484	-56.970576
3.500000	-0.081840	-57.756761	-28.924298	33.750613	-28.924298	33.750613	-0.081828	-57.746028
3.550000	-0.083188	-58.531751	-28.833180	33.048395	-28.833180	33.048395	-0.083176	-58.520882
3.600000	-0.084556	-59.303749	-28.744663	32.352552	-28.744663	32.352552	-0.084544	-59.292745
3.650000	-0.085926	-60.075447	-28.657199	31.657354	-28.657199	31.657354	-0.085914	-60.064308
3.700000	-0.087320	-60.843837	-28.572353	30.969250	-28.572353	30.969250	-0.087308	-60.832563
3.750000	-0.088715	-61.612227	-28.488326	30.281146	-28.488326	30.281146	-0.088702	-61.600819
3.800000	-0.090136	-62.376994	-28.406924	29.600862	-28.406924	29.600862	-0.090123	-62.365453
3.850000	-0.091558	-63.141761	-28.326277	28.920579	-28.326277	28.920579	-0.091545	-63.130086
3.900000	-0.093007	-63.903198	-28.247962	28.247529	-28.247962	28.247529	-0.092994	-63.891391
3.950000	-0.094459	-64.664332	-28.170489	27.575137	-28.170489	27.575137	-0.094445	-64.652392
4.000000	-0.095936	-65.422433	-28.095073	26.909372	-28.095073	26.909372	-0.095922	-65.410362
4.050000	-0.097419	-66.179928	-28.020579	26.244933	-28.020579	26.244933	-0.097405	-66.167725
4.100000	-0.098927	-66.934693	-27.947889	25.586496	-27.947889	25.586496	-0.098912	-66.922359
4.150000	-0.100443	-67.688547	-27.876189	24.930061	-27.876189	24.930061	-0.100428	-67.676083
4.200000	-0.101982	-68.439977	-27.806057	24.278988	-27.806057	24.278988	-0.101967	-68.427383
4.250000	-0.103533	-69.190195	-27.736974	23.630596	-27.736974	23.630596	-0.103518	-69.177471
4.300000	-0.105106	-69.938295	-27.669243	22.986915	-27.669243	22.986915	-0.105090	-69.925442
4.350000	-0.106694	-70.684882	-27.602608	22.346597	-27.602608	22.346597	-0.106678	-70.671901
4.400000	-0.108301	-71.429661	-27.537128	21.710326	-27.537128	21.710326	-0.108285	-71.416550
4.450000	-0.109928	-72.172630	-27.472781	21.078102	-27.472781	21.078102	-0.109912	-72.159391
4.500000	-0.111572	-72.914097	-27.409408	20.449252	-27.409408	20.449252	-0.111556	-72.900731
4.550000	-0.113240	-73.653463	-27.347193	19.825128	-27.347193	19.825128	-0.113223	-73.639970
4.600000	-0.114922	-74.391635	-27.285792	19.203703	-27.285792	19.203703	-0.114905	-74.378014
4.650000	-0.116632	-75.127418	-27.225560	18.587675	-27.225560	18.587675	-0.116615	-75.113670
4.700000	-0.118354	-75.862310	-27.165998	17.973667	-27.165998	17.973667	-0.118336	-75.848436
4.750000	-0.120109	-76.594533	-27.107606	17.365718	-27.107606	17.365718	-0.120091	-76.580532
4.800000	-0.121872	-77.326167	-27.049758	16.759111	-27.049758	16.759111	-0.121854	-77.312040
4.850000	-0.123673	-78.054857	-26.993065	16.159212	-26.993065	16.159212	-0.123655	-78.040605
4.900000	-0.125479	-78.783256	-26.936811	15.559980	-26.936811	15.559980	-0.125460	-78.768878
4.950000	-0.127329	-79.508445	-26.881684	14.968087	-26.881684	14.968087	-0.127310	-79.493942
5.000000	-0.129179	-80.233634	-26.826905	14.376194	-26.826905	14.376194	-0.129160	-80.219006
5.050000	-0.131079	-80.955357	-26.773213	13.792251	-26.773213	13.792251	-0.131060	-80.940604
5.100000	-0.132980	-81.677080	-26.719852	13.208307	-26.719852	13.208307	-0.132960	-81.662202
5.150000	-0.134928	-82.395661	-26.667415	12.631583	-26.667415	12.631583	-0.134908	-82.380659
5.200000	-0.136881	-83.113956	-26.615346	12.055516	-26.615346	12.055516	-0.136860	-83.098830
5.250000	-0.138878	-83.829431	-26.564055	11.485940	-26.564055	11.485940	-0.138858	-83.814180
5.300000	-0.140886	-84.544341	-26.513158	10.917661	-26.513158	10.917661	-0.140864	-84.528966
5.350000	-0.142935	-85.256746	-26.462910	10.355145	-26.462910	10.355145	-0.142913	-85.241247
5.400000	-0.144998	-85.968316	-26.413066	9.794550	-26.413066	9.794550	-0.144976	-85.952694
5.450000	-0.147100	-86.677693	-26.363758	9.238996	-26.363758	9.238996	-0.147077	-86.661947
5.500000	-0.149221	-87.385972	-26.314854	8.685962	-26.314854	8.685962	-0.149198	-87.370103
5.550000	-0.151377	-88.092363	-26.266389	8.137258	-26.266389	8.137258	-0.151354	-88.076370
5.600000	-0.153558	-88.797404	-26.218310	7.591646	-26.218310	7.591646	-0.153535	-88.781288
5.650000	-0.155770	-89.500854	-26.170593	7.049666	-26.170593	7.049666	-0.155747	-89.484614
5.700000	-0.158014	-90.202713	-26.123232	6.511316	-26.123232	6.511316	-0.157990	-90.186350
5.750000	-0.160283	-90.903271	-26.076169	5.975918	-26.076169	5.975918	-0.160259	-90.886784
5.800000	-0.162590	-91.602006	-26.029419	5.444652	-26.029419	5.444652	-0.162566	-91.585395
5.850000	-0.164920	-92.299720	-25.982922	4.915681	-25.982922	4.915681	-0.164894	-92.282986
5.900000	-0.167292	-92.995393	-25.936678	4.391299	-25.936678	4.391299	-0.167267	-92.978536
5.950000	-0.169682	-93.690317	-25.890659	3.868583	-25.890659	3.868583	-0.169656	-93.673336
6.000000	-0.172122	-94.382994	-25.844822	3.350866	-25.844822	3.350866	-0.172096	-94.365889
6.050000	-0.174575	-95.075182	-25.799198	2.834219	-25.799198	2.834219	-0.174548	-95.057953
6.100000	-0.177085	-95.764929	-25.753669	2.322923	-25.753669	2.322923	-0.177057	-95.747576
6.150000	-0.179601	-96.454438	-25.708357	1.812141	-25.708357	1.812141	-0.179573	-96.436961
6.200000	-0.182182	-97.141327	-25.663043	1.307005	-25.663043	1.307005	-0.182154	-97.123726
6.250000	-0.184764	-97.828216	-25.617964	0.801868	-25.617964	0.801868	-0.184736	-97.810490
6.300000	-0.187419	-98.512321	-25.572773	0.302604	-25.572773	0.302604	-0.187390	-98.494470
6.350000	-0.190074	-99.196425	-25.527815	-0.196659	-25.527815	-0.196659	-0.190045	-99.178449
6.400000	-0.192798	-99.878046	-25.482695	-0.690822	-25.482695	-0.690822	-0.192768	-99.859946
6.450000	-0.195529	-100.559442	-25.437772	-1.184521	-25.437772	-1.184521	-0.195498	-100.541216
6.500000	-0.198323	-101.238647	-25.392653	-1.673857	-25.392653	-1.673857	-0.198292	-101.220295
6.550000	-0.201131	-101.917413	-25.347681	-2.162321	-25.347681	-2.162321	-0.201100	-101.898935
6.600000	-0.203998	-102.594269	-25.302495	-2.647122	-25.302495	-2.647122	-0.203966	-102.575665
6.650000	-0.206885	-103.270488	-25.257396	-3.130702	-25.257396	-3.130702	-0.206852	-103.251757
6.700000	-0.209825	-103.945064	-25.212080	-3.611275	-25.212080	-3.611275	-0.209792	-103.926206
6.750000	-0.212793	-104.618819	-25.166777	-4.090343	-25.166777	-4.090343	-0.212760	-104.599834
6.800000	-0.215809	-105.291188	-25.121272	-4.567009	-25.121272	-4.567009	-0.215775	-105.272075
6.850000	-0.218860	-105.962566	-25.075694	-5.041957	-25.075694	-5.041957	-0.218825	-105.943325
6.900000	-0.221953	-106.632801	-25.029943	-5.515051	-25.029943	-5.515051	-0.221918	-106.613431
6.950000	-0.225088	-107.301892	-24.984024	-5.986290	-24.984024	-5.986290	-0.225053	-107.282392
7.000000	-0.228260	-107.970068	-24.937976	-6.456161	-24.937976	-6.456161	-0.228224	-107.950439
7.050000	-0.231482	-108.636963	-24.891655	-6.924117	-24.891655	-6.924117	-0.231445	-108.617204
7.100000	-0.234734	-109.303158	-24.845261	-7.391126	-24.845261	-7.391126	-0.234697	-109.283268
7.150000	-0.238044	-109.967952	-24.798481	-7.856240	-24.798481	-7.856240	-0.238006	-109.947930
7.200000	-0.241378	-110.632244	-24.751698	-8.320756	-24.751698	-8.320756	-0.241340	-110.612091
7.250000	-0.244779	-111.295033	-24.704408	-8.783482	-24.704408	-8.783482	-0.244740	-111.274747
7.300000	-0.248196	-111.957504	-24.657196	-9.245887	-24.657196	-9.245887	-0.248156	-111.937085
7.350000	-0.251689	-112.618386	-24.609352	-9.706687	-24.609352	-9.706687	-0.251649	-112.597833
7.400000	-0.255191	-113.279119	-24.561676	-10.167366	-24.561676	-10.167366	-0.255150	-113.258432
7.450000	-0.258778	-113.938196	-24.513238	-10.626711	-24.513238	-10.626711	-0.258736	-113.917374
7.500000	-0.262366	-114.597274	-24.465068	-11.086056	-24.465068	-11.086056	-0.262324	-114.576316
7.550000	-0.266049	-115.254651	-24.416001	-11.544417	-24.416001	-11.544417	-0.266006	-115.233556
7.600000	-0.269733	-115.912028	-24.367210	-12.002779	-24.367210	-12.002779	-0.269690	-115.890796
7.650000	-0.273506	-116.567943	-24.317588	-12.460674	-24.317588	-12.460674	-0.273462	-116.546572
7.700000	-0.277288	-117.223724	-24.268149	-12.918526	-24.268149	-12.918526	-0.277243	-117.202215
7.750000	-0.281152	-117.878267	-24.217957	-13.376343	-24.217957	-13.376343	-0.281107	-117.856618
7.800000	-0.285034	-118.532562	-24.167847	-13.834154	-24.167847	-13.834154	-0.284988	-118.510772
7.850000	-0.288990	-119.185825	-24.117073	-14.292280	-24.117073	-14.292280	-0.288944	-119.163893
7.900000	-0.292973	-119.838744	-24.066279	-14.750512	-24.066279	-14.750512	-0.292926	-119.816669
7.950000	-0.297025	-120.490821	-24.014916	-15.209324	-24.014916	-15.209324	-0.296977	-120.468602
8.000000	-0.301111	-121.142476	-23.963426	-15.668426	-23.963426	-15.668426	-0.301062	-121.120114
8.050000	-0.305258	-121.793463	-23.911472	-16.128290	-23.911472	-16.128290	-0.305209	-121.770954
8.100000	-0.309449	-122.443971	-23.859283	-16.588699	-23.859283	-16.588699	-0.309399	-122.421316
8.150000	-0.313694	-123.093964	-23.806739	-17.049969	-23.806739	-17.049969	-0.313643	-123.071161
8.200000	-0.317992	-123.743442	-23.753851	-17.512100	-23.753851	-17.512100	-0.317940	-123.720491
8.250000	-0.322335	-124.392541	-23.700723	-17.975113	-23.700723	-17.975113	-0.322283	-124.369440
8.300000	-0.326742	-125.041109	-23.647141	-18.439362	-23.647141	-18.439362	-0.326689	-125.017857
8.350000	-0.331185	-125.689415	-23.593438	-18.904440	-23.593438	-18.904440	-0.331132	-125.666011
8.400000	-0.335702	-126.337196	-23.539172	-19.371176	-23.539172	-19.371176	-0.335648	-126.313638
8.450000	-0.340248	-126.984812	-23.484905	-19.838619	-23.484905	-19.838619	-0.340193	-126.961099
8.500000	-0.344876	-127.631930	-23.429969	-20.308183	-23.429969	-20.308183	-0.344820	-127.608061
8.550000	-0.349525	-128.278960	-23.375153	-20.778271	-23.375153	-20.778271	-0.349469	-128.254934
8.600000	-0.354267	-128.925544	-23.319565	-21.250975	-23.319565	-21.250975	-0.354210	-128.901359
8.650000	-0.359021	-129.572095	-23.264217	-21.723964	-23.264217	-21.723964	-0.358963	-129.547750
8.700000	-0.363878	-130.218274	-23.207996	-22.200087	-23.207996	-22.200087	-0.363819	-130.193767
8.750000	-0.368738	-130.864454	-23.152136	-22.676210	-23.152136	-22.676210	-0.368678	-130.839785
8.800000	-0.373712	-131.510361	-23.095303	-23.155997	-23.095303	-23.155997	-0.373651	-131.485527
8.850000	-0.378689	-132.156269	-23.038840	-23.635784	-23.038840	-23.635784	-0.378628	-132.131269
8.900000	-0.383772	-132.802051	-22.981530	-24.119123	-22.981530	-24.119123	-0.383710	-132.776883
8.950000	-0.388867	-133.447822	-22.924487	-24.602785	-22.924487	-24.602785	-0.388804	-133.422486
9.000000	-0.394060	-134.093594	-22.866723	-25.089822	-22.866723	-25.089822	-0.393997	-134.068087
9.050000	-0.399276	-134.739366	-22.809124	-25.577535	-22.809124	-25.577535	-0.399211	-134.713687
9.100000	-0.404581	-135.385245	-22.750929	-26.068391	-22.750929	-26.068391	-0.404515	-135.359392
9.150000	-0.409918	-136.031160	-22.692797	-26.560295	-22.692797	-26.560295	-0.409851	-136.005131
9.200000	-0.415335	-136.677265	-22.634192	-27.055065	-22.634192	-27.055065	-0.415268	-136.651058
9.250000	-0.420795	-137.323466	-22.575551	-27.551267	-22.575551	-27.551267	-0.420727	-137.297080
9.300000	-0.426327	-137.969918	-22.516556	-28.050021	-22.516556	-28.050021	-0.426258	-137.943351
9.350000	-0.431912	-138.616551	-22.457429	-28.550597	-22.457429	-28.550597	-0.431842	-138.589801
9.400000	-0.437559	-139.263475	-22.398065	-29.053381	-22.398065	-29.053381	-0.437488	-139.236541
9.450000	-0.443269	-139.910691	-22.338470	-29.558373	-22.338470	-29.558373	-0.443197	-139.883569
9.500000	-0.449032	-140.558212	-22.278754	-30.065212	-22.278754	-30.065212	-0.448960	-140.530902
9.550000	-0.454869	-141.206162	-22.218710	-30.574636	-22.218710	-30.574636	-0.454796	-141.178661
9.600000	-0.460750	-141.854409	-22.158657	-31.085534	-22.158657	-31.085534	-0.460676	-141.826715
9.650000	-0.466716	-142.503250	-22.098178	-31.599379	-22.098178	-31.599379	-0.466640	-142.475361
9.700000	-0.472715	-143.152354	-22.037801	-32.114320	-22.037801	-32.114320	-0.472639	-143.124267
9.750000	-0.478810	-143.802245	-21.976899	-32.632551	-21.976899	-32.632551	-0.478733	-143.773958
9.800000	-0.484929	-144.452338	-21.916209	-33.151505	-21.916209	-33.151505	-0.484851	-144.423851
9.850000	-0.491154	-145.103442	-21.854889	-33.674068	-21.854889	-33.674068	-0.491075	-145.074750
9.900000	-0.497393	-145.754661	-21.793892	-34.196987	-21.793892	-34.196987	-0.497313	-145.725763
9.950000	-0.503749	-146.407144	-21.732158	-34.723812	-21.732158	-34.723812	-0.503668	-146.378037
10.000000	-0.510110	-147.059627	-21.670859	-35.250637	-21.670859	-35.250637	-0.510028	-147.030310
