! freq	dB(S11)	phase(S11)	dB(S12)	phase(S12)	
!     	dB(S21)	phase(S21)	dB(S22)	phase(S22)	
!S-par simulation data
#  GHz  S  DB  R 50
0.000000	0.000000	0.000000	-298.820297	180.000000	-298.820297	180.000000	-0.000000	-0.000000
0.050000	-0.000111	-0.898479	-63.138866	89.017677	-63.138866	89.017677	-0.000116	-0.943536
0.100000	-0.000441	-1.796693	-57.122101	88.038610	-57.122101	88.038610	-0.000459	-1.886795
0.150000	-0.000978	-2.694396	-53.606370	87.065560	-53.606370	87.065560	-0.001016	-2.829521
0.200000	-0.001700	-3.591380	-51.115536	86.100404	-51.115536	86.100404	-0.001768	-3.771495
0.250000	-0.002597	-4.487408	-49.187081	85.144806	-49.187081	85.144806	-0.002702	-4.712465
0.300000	-0.003629	-5.382426	-47.614126	84.198174	-47.614126	84.198174	-0.003777	-5.652374
0.350000	-0.004776	-6.276300	-46.286709	83.260541	-46.286709	83.260541	-0.004975	-6.591074
0.400000	-0.006014	-7.168967	-45.138993	82.331168	-45.138993	82.331168	-0.006269	-7.528495
0.450000	-0.007322	-8.060396	-44.128490	81.409102	-44.128490	81.409102	-0.007636	-8.464598
0.500000	-0.008678	-8.950578	-43.226194	80.493328	-43.226194	80.493328	-0.009056	-9.399368
0.550000	-0.010065	-9.839524	-42.411432	79.582875	-42.411432	79.582875	-0.010510	-10.332811
0.600000	-0.011470	-10.727255	-41.668958	78.676875	-41.668958	78.676875	-0.011984	-11.264945
0.650000	-0.012882	-11.613798	-40.987212	77.774588	-40.987212	77.774588	-0.013466	-12.195792
0.700000	-0.014292	-12.499183	-40.357225	76.875405	-40.357225	76.875405	-0.014947	-13.125380
0.750000	-0.015694	-13.383438	-39.771901	75.978845	-39.771901	75.978845	-0.016419	-14.053734
0.800000	-0.017083	-14.266587	-39.225528	75.084532	-39.225528	75.084532	-0.017880	-14.980877
0.850000	-0.018459	-15.148650	-38.713442	74.192189	-38.713442	74.192189	-0.019325	-15.906828
0.900000	-0.019818	-16.029641	-38.231785	73.301612	-38.231785	73.301612	-0.020753	-16.831598
0.950000	-0.021161	-16.909570	-37.777327	72.412661	-37.777327	72.412661	-0.022164	-17.755196
1.000000	-0.022488	-17.788440	-37.347340	71.525247	-37.347340	71.525247	-0.023557	-18.677623
1.050000	-0.023800	-18.666251	-36.939494	70.639317	-36.939494	70.639317	-0.024934	-19.598877
1.100000	-0.025097	-19.542996	-36.551788	69.754853	-36.551788	69.754853	-0.026295	-20.518950
1.150000	-0.026381	-20.418666	-36.182486	68.871857	-36.182486	68.871857	-0.027641	-21.437830
1.200000	-0.027653	-21.293247	-35.830074	67.990352	-35.830074	67.990352	-0.028975	-22.355502
1.250000	-0.028915	-22.166725	-35.493223	67.110373	-35.493223	67.110373	-0.030296	-23.271949
1.300000	-0.030167	-23.039031	-35.170841	66.232038	-35.170841	66.232038	-0.031607	-24.187093
1.350000	-0.031411	-23.910192	-34.861805	65.355335	-34.861805	65.355335	-0.032908	-25.100966
1.400000	-0.032649	-24.780186	-34.565187	64.480325	-34.565187	64.480325	-0.034202	-26.013542
1.450000	-0.033881	-25.648991	-34.280155	63.607073	-34.280155	63.607073	-0.035490	-26.924797
1.500000	-0.035109	-26.516582	-34.005962	62.735646	-34.005962	62.735646	-0.036772	-27.834704
1.550000	-0.036332	-27.382935	-33.741931	61.866113	-33.741931	61.866113	-0.038049	-28.743235
1.600000	-0.037554	-28.248024	-33.487453	60.998544	-33.487453	60.998544	-0.039323	-29.650363
1.650000	-0.038773	-29.111826	-33.241969	60.133010	-33.241969	60.133010	-0.040595	-30.556061
1.700000	-0.039991	-29.974313	-33.004974	59.269582	-33.004974	59.269582	-0.041864	-31.460300
1.750000	-0.041208	-30.835462	-32.776002	58.408330	-32.776002	58.408330	-0.043133	-32.363054
1.800000	-0.042424	-31.695247	-32.554630	57.549324	-32.554630	57.549324	-0.044400	-33.264294
1.850000	-0.043642	-32.553643	-32.340464	56.692633	-32.340464	56.692633	-0.045668	-34.163993
1.900000	-0.044859	-33.410626	-32.133144	55.838327	-32.133144	55.838327	-0.046935	-35.062126
1.950000	-0.046078	-34.266172	-31.932336	54.986472	-31.932336	54.986472	-0.048204	-35.958666
2.000000	-0.047299	-35.120257	-31.737731	54.137134	-31.737731	54.137134	-0.049474	-36.853587
2.050000	-0.048521	-35.972857	-31.549042	53.290380	-31.549042	53.290380	-0.050746	-37.746864
2.100000	-0.049746	-36.823951	-31.366002	52.446272	-31.366002	52.446272	-0.052019	-38.638473
2.150000	-0.050973	-37.673517	-31.188361	51.604874	-31.188361	51.604874	-0.053295	-39.528390
2.200000	-0.052202	-38.521531	-31.015887	50.766246	-31.015887	50.766246	-0.054573	-40.416592
2.250000	-0.053435	-39.367975	-30.848362	49.930449	-30.848362	49.930449	-0.055855	-41.303056
2.300000	-0.054671	-40.212826	-30.685582	49.097542	-30.685582	49.097542	-0.057140	-42.187761
2.350000	-0.055910	-41.056066	-30.527355	48.267582	-30.527355	48.267582	-0.058428	-43.070687
2.400000	-0.057154	-41.897675	-30.373501	47.440625	-30.373501	47.440625	-0.059720	-43.951811
2.450000	-0.058401	-42.737634	-30.223850	46.616726	-30.223850	46.616726	-0.061016	-44.831116
2.500000	-0.059653	-43.575926	-30.078242	45.795938	-30.078242	45.795938	-0.062317	-45.708582
2.550000	-0.060909	-44.412459	-29.936590	44.978452	-29.936590	44.978452	-0.063622	-46.584109
2.600000	-0.062170	-45.247289	-29.798683	44.164184	-29.798683	44.164184	-0.064933	-47.457761
2.650000	-0.063436	-46.080399	-29.664387	43.353183	-29.664387	43.353183	-0.066249	-48.329520
2.700000	-0.064708	-46.911775	-29.533571	42.545497	-29.533571	42.545497	-0.067570	-49.199372
2.750000	-0.065985	-47.741402	-29.406114	41.741171	-29.406114	41.741171	-0.068897	-50.067301
2.800000	-0.067268	-48.569265	-29.281899	40.940250	-29.281899	40.940250	-0.070231	-50.933292
2.850000	-0.068558	-49.395350	-29.160814	40.142778	-29.160814	40.142778	-0.071571	-51.797333
2.900000	-0.069854	-50.219645	-29.042754	39.348797	-29.042754	39.348797	-0.072917	-52.659411
2.950000	-0.071157	-51.042138	-28.927617	38.558347	-28.927617	38.558347	-0.074272	-53.519512
3.000000	-0.072467	-51.862816	-28.815307	37.771468	-28.815307	37.771468	-0.075633	-54.377627
3.050000	-0.073784	-52.681668	-28.705731	36.988198	-28.705731	36.988198	-0.077003	-55.233744
3.100000	-0.075110	-53.498683	-28.598801	36.208572	-28.598801	36.208572	-0.078381	-56.087854
3.150000	-0.076444	-54.313853	-28.494431	35.432627	-28.494431	35.432627	-0.079767	-56.939946
3.200000	-0.077786	-55.127167	-28.392539	34.660396	-28.392539	34.660396	-0.081163	-57.790014
3.250000	-0.079137	-55.938616	-28.293049	33.891911	-28.293049	33.891911	-0.082568	-58.638048
3.300000	-0.080497	-56.748192	-28.195883	33.127204	-28.195883	33.127204	-0.083982	-59.484043
3.350000	-0.081867	-57.555889	-28.100969	32.366304	-28.100969	32.366304	-0.085407	-60.327991
3.400000	-0.083248	-58.361697	-28.008237	31.609239	-28.008237	31.609239	-0.086843	-61.169886
3.450000	-0.084638	-59.165612	-27.917621	30.856036	-27.917621	30.856036	-0.088289	-62.009724
3.500000	-0.086039	-59.967627	-27.829054	30.106721	-27.829054	30.106721	-0.089747	-62.847501
3.550000	-0.087452	-60.767737	-27.742474	29.361318	-27.742474	29.361318	-0.091217	-63.683212
3.600000	-0.088876	-61.565937	-27.657819	28.619849	-27.657819	28.619849	-0.092699	-64.516855
3.650000	-0.090312	-62.362224	-27.575032	27.882336	-27.575032	27.882336	-0.094194	-65.348427
3.700000	-0.091761	-63.156592	-27.494054	27.148799	-27.494054	27.148799	-0.095702	-66.177927
3.750000	-0.093222	-63.949040	-27.414832	26.419257	-27.414832	26.419257	-0.097224	-67.005353
3.800000	-0.094698	-64.739481	-27.337352	25.693902	-27.337352	25.693902	-0.098760	-67.830615
3.850000	-0.096187	-65.527996	-27.261519	24.972576	-27.261519	24.972576	-0.100311	-68.653804
3.900000	-0.097690	-66.314585	-27.187283	24.255294	-27.187283	24.255294	-0.101877	-69.474921
3.950000	-0.099208	-67.099247	-27.114595	23.542069	-27.114595	23.542069	-0.103458	-70.293967
4.000000	-0.100741	-67.881981	-27.043406	22.832911	-27.043406	22.832911	-0.105055	-71.110944
4.050000	-0.102289	-68.662787	-26.973670	22.127833	-26.973670	22.127833	-0.106669	-71.925855
4.100000	-0.103853	-69.441667	-26.905342	21.426842	-26.905342	21.426842	-0.108299	-72.738704
4.150000	-0.105434	-70.218622	-26.838378	20.729946	-26.838378	20.729946	-0.109947	-73.549495
4.200000	-0.107031	-70.993654	-26.772734	20.037151	-26.772734	20.037151	-0.111613	-74.358233
4.250000	-0.108645	-71.766764	-26.708369	19.348462	-26.708369	19.348462	-0.113296	-75.164922
4.300000	-0.110278	-72.537957	-26.645242	18.663883	-26.645242	18.663883	-0.114999	-75.969569
4.350000	-0.111928	-73.307234	-26.583313	17.983416	-26.583313	17.983416	-0.116720	-76.772180
4.400000	-0.113597	-74.074601	-26.522542	17.307060	-26.522542	17.307060	-0.118461	-77.572763
4.450000	-0.115285	-74.840061	-26.462892	16.634816	-26.462892	16.634816	-0.120223	-78.371323
4.500000	-0.116992	-75.603620	-26.404325	15.966682	-26.404325	15.966682	-0.122005	-79.167871
4.550000	-0.118719	-76.365282	-26.346804	15.302653	-26.346804	15.302653	-0.123807	-79.962414
4.600000	-0.120470	-77.124728	-26.290398	14.643437	-26.290398	14.643437	-0.125636	-80.754619
4.650000	-0.122243	-77.882207	-26.234992	13.988492	-26.234992	13.988492	-0.127487	-81.544751
4.700000	-0.124028	-78.638710	-26.180237	13.335677	-26.180237	13.335677	-0.129350	-82.333858
4.750000	-0.125846	-79.392283	-26.126717	12.689246	-26.126717	12.689246	-0.131249	-83.119886
4.800000	-0.127672	-80.145211	-26.073708	12.044226	-26.073708	12.044226	-0.133156	-83.905238
4.850000	-0.129537	-80.894912	-26.021934	11.406260	-26.021934	11.406260	-0.135105	-84.687212
4.900000	-0.131406	-81.644294	-25.970550	10.768994	-25.970550	10.768994	-0.137058	-85.468853
4.950000	-0.133320	-82.390162	-25.920385	10.139430	-25.920385	10.139430	-0.139058	-86.246828
5.000000	-0.135235	-83.136030	-25.870509	9.509865	-25.870509	9.509865	-0.141058	-87.024803
5.050000	-0.137200	-83.878106	-25.821822	8.888627	-25.821822	8.888627	-0.143112	-87.798839
5.100000	-0.139165	-84.620182	-25.773407	8.267388	-25.773407	8.267388	-0.145166	-88.572874
5.150000	-0.141179	-85.358825	-25.726003	7.653697	-25.726003	7.653697	-0.147271	-89.343357
5.200000	-0.143197	-86.097156	-25.678924	7.040693	-25.678924	7.040693	-0.149381	-90.113516
5.250000	-0.145261	-86.832408	-25.632696	6.434462	-25.632696	6.434462	-0.151539	-90.880503
5.300000	-0.147334	-87.567044	-25.586832	5.829586	-25.586832	5.829586	-0.153707	-91.646855
5.350000	-0.149450	-88.298948	-25.541675	5.230716	-25.541675	5.230716	-0.155919	-92.410405
5.400000	-0.151580	-89.029942	-25.496906	4.633847	-25.496906	4.633847	-0.158147	-93.173021
5.450000	-0.153750	-89.758546	-25.452720	4.042225	-25.452720	4.042225	-0.160416	-93.933198
5.500000	-0.155939	-90.485956	-25.408932	3.453226	-25.408932	3.453226	-0.162705	-94.692155
5.550000	-0.158163	-91.211309	-25.365619	2.868729	-25.365619	2.868729	-0.165031	-95.449025
5.600000	-0.160413	-91.935194	-25.322701	2.287447	-25.322701	2.287447	-0.167385	-96.204403
5.650000	-0.162694	-92.657349	-25.280165	1.709937	-25.280165	1.709937	-0.169771	-96.958033
5.700000	-0.165007	-93.377774	-25.238007	1.136200	-25.238007	1.136200	-0.172190	-97.709916
5.750000	-0.167346	-94.096785	-25.196157	0.565529	-25.196157	0.565529	-0.174637	-98.460379
5.800000	-0.169724	-94.813817	-25.154653	-0.000852	-25.154653	-0.000852	-0.177124	-99.208855
5.850000	-0.172123	-95.529741	-25.113400	-0.564849	-25.113400	-0.564849	-0.179634	-99.956224
5.900000	-0.174567	-96.243450	-25.072447	-1.124080	-25.072447	-1.124080	-0.182190	-100.701383
5.950000	-0.177029	-96.956346	-25.031703	-1.681581	-25.031703	-1.681581	-0.184765	-101.445736
6.000000	-0.179541	-97.666806	-24.991201	-2.233890	-24.991201	-2.233890	-0.187393	-102.187673
6.050000	-0.182066	-98.376736	-24.950883	-2.785087	-24.950883	-2.785087	-0.190034	-102.929089
6.100000	-0.184648	-99.084022	-24.910734	-3.330721	-24.910734	-3.330721	-0.192735	-103.667902
6.150000	-0.187238	-99.791050	-24.870760	-3.875822	-24.870760	-3.875822	-0.195444	-104.406463
6.200000	-0.189893	-100.495242	-24.830869	-4.415048	-24.830869	-4.415048	-0.198221	-105.142253
6.250000	-0.192549	-101.199434	-24.791160	-4.954275	-24.791160	-4.954275	-0.200999	-105.878043
6.300000	-0.195278	-101.900614	-24.751436	-5.487384	-24.751436	-5.487384	-0.203853	-106.610914
6.350000	-0.198009	-102.601794	-24.711892	-6.020493	-24.711892	-6.020493	-0.206709	-107.343785
6.400000	-0.200808	-103.300290	-24.672269	-6.548278	-24.672269	-6.548278	-0.209636	-108.074080
6.450000	-0.203614	-103.998542	-24.632803	-7.075580	-24.632803	-7.075580	-0.212571	-108.804140
6.500000	-0.206485	-104.694427	-24.593210	-7.598320	-24.593210	-7.598320	-0.215573	-109.531950
6.550000	-0.209370	-105.389839	-24.553737	-8.120148	-24.553737	-8.120148	-0.218589	-110.259309
6.600000	-0.212314	-106.083187	-24.514106	-8.638137	-24.514106	-8.638137	-0.221667	-110.984729
6.650000	-0.215278	-106.775849	-24.474544	-9.154847	-24.474544	-9.154847	-0.224766	-111.709501
6.700000	-0.218297	-107.466738	-24.434811	-9.668396	-24.434811	-9.668396	-0.227921	-112.432626
6.750000	-0.221343	-108.156741	-24.395084	-10.180365	-24.395084	-10.180365	-0.231105	-113.154928
6.800000	-0.224438	-108.845248	-24.355186	-10.689803	-24.355186	-10.689803	-0.234340	-113.875858
6.850000	-0.227568	-109.532688	-24.315220	-11.197432	-24.315220	-11.197432	-0.237611	-114.595807
6.900000	-0.230741	-110.218894	-24.275099	-11.703102	-24.275099	-11.703102	-0.240926	-115.314642
6.950000	-0.233956	-110.903867	-24.234826	-12.206812	-24.234826	-12.206812	-0.244286	-116.032362
7.000000	-0.237209	-111.587854	-24.194428	-12.709073	-24.194428	-12.709073	-0.247683	-116.749205
7.050000	-0.240511	-112.270461	-24.153783	-13.209306	-24.153783	-13.209306	-0.251133	-117.464820
7.100000	-0.243844	-112.952312	-24.113057	-13.708534	-24.113057	-13.708534	-0.254615	-118.179775
7.150000	-0.247237	-113.632653	-24.071981	-14.205750	-24.071981	-14.205750	-0.258157	-118.893412
7.200000	-0.250652	-114.312453	-24.030881	-14.702332	-24.030881	-14.702332	-0.261724	-119.606587
7.250000	-0.254135	-114.990633	-23.989322	-15.197009	-23.989322	-15.197009	-0.265361	-120.318376
7.300000	-0.257634	-115.668470	-23.947805	-15.691344	-23.947805	-15.691344	-0.269014	-121.029879
7.350000	-0.261210	-116.344595	-23.905714	-16.183973	-23.905714	-16.183973	-0.272747	-121.739952
7.400000	-0.264795	-117.020557	-23.863744	-16.676474	-23.863744	-16.676474	-0.276488	-122.449894
7.450000	-0.268466	-117.694735	-23.821079	-17.167558	-23.821079	-17.167558	-0.280318	-123.158388
7.500000	-0.272138	-118.368913	-23.778622	-17.658642	-23.778622	-17.658642	-0.284150	-123.866882
7.550000	-0.275904	-119.041254	-23.735349	-18.148692	-23.735349	-18.148692	-0.288080	-124.573933
7.600000	-0.279673	-119.713595	-23.692290	-18.638743	-23.692290	-18.638743	-0.292011	-125.280985
7.650000	-0.283530	-120.384356	-23.648468	-19.128316	-23.648468	-19.128316	-0.296033	-125.986843
7.700000	-0.287396	-121.054974	-23.604778	-19.617847	-23.604778	-19.617847	-0.300066	-126.692593
7.750000	-0.291345	-121.724250	-23.560392	-20.107373	-23.560392	-20.107373	-0.304182	-127.397377
7.800000	-0.295311	-122.393259	-23.516049	-20.596897	-23.516049	-20.596897	-0.308317	-128.101969
7.850000	-0.299353	-123.061148	-23.471089	-21.086798	-23.471089	-21.086798	-0.312530	-128.805800
7.900000	-0.303421	-123.728663	-23.426079	-21.576825	-23.426079	-21.576825	-0.316770	-129.509378
7.950000	-0.307557	-124.395264	-23.380538	-22.067517	-23.380538	-22.067517	-0.321080	-130.212380
8.000000	-0.311728	-125.061406	-23.334855	-22.558542	-23.334855	-22.558542	-0.325426	-130.915094
8.050000	-0.315961	-125.726817	-23.288733	-23.050429	-23.288733	-23.050429	-0.329834	-131.617391
8.100000	-0.320237	-126.391707	-23.242374	-23.542932	-23.242374	-23.542932	-0.334288	-132.319391
8.150000	-0.324566	-127.056032	-23.195677	-24.036402	-23.195677	-24.036402	-0.338796	-133.021111
8.200000	-0.328949	-127.719791	-23.148648	-24.530841	-23.148648	-24.530841	-0.343359	-133.722551
8.250000	-0.333377	-128.383133	-23.101385	-25.026264	-23.101385	-25.026264	-0.347969	-134.423823
8.300000	-0.337868	-129.045888	-23.053698	-25.523066	-23.053698	-25.523066	-0.352643	-135.124858
8.350000	-0.342397	-129.708351	-23.005882	-26.020789	-23.005882	-26.020789	-0.357355	-135.825813
8.400000	-0.346997	-130.370229	-22.957553	-26.520351	-22.957553	-26.520351	-0.362142	-136.526604
8.450000	-0.351627	-131.031920	-22.909202	-27.020692	-22.909202	-27.020692	-0.366958	-137.227374
8.500000	-0.356339	-131.693049	-22.860254	-27.523371	-22.860254	-27.523371	-0.371859	-137.928082
8.550000	-0.361071	-132.354077	-22.811389	-28.026622	-22.811389	-28.026622	-0.376780	-138.628803
8.600000	-0.365896	-133.014590	-22.761847	-28.532732	-22.761847	-28.532732	-0.381796	-139.329593
8.650000	-0.370733	-133.675063	-22.712491	-29.039150	-22.712491	-29.039150	-0.386824	-140.030403
8.700000	-0.375672	-134.335093	-22.662382	-29.548959	-22.662382	-29.548959	-0.391956	-140.731441
8.750000	-0.380613	-134.995124	-22.612561	-30.058768	-22.612561	-30.058768	-0.397092	-141.432479
8.800000	-0.385668	-135.654807	-22.561917	-30.572494	-22.561917	-30.572494	-0.402342	-142.133936
8.850000	-0.390725	-136.314491	-22.511566	-31.086221	-22.511566	-31.086221	-0.407596	-142.835394
8.900000	-0.395887	-136.973983	-22.460507	-31.603694	-22.460507	-31.603694	-0.412956	-143.537394
8.950000	-0.401062	-137.633458	-22.409656	-32.121508	-22.409656	-32.121508	-0.418329	-144.239444
9.000000	-0.406333	-138.292876	-22.358209	-32.642826	-22.358209	-32.642826	-0.423800	-144.942135
9.050000	-0.411626	-138.952283	-22.306888	-33.164845	-22.306888	-33.164845	-0.429294	-145.644953
9.100000	-0.417007	-139.611745	-22.255078	-33.690071	-22.255078	-33.690071	-0.434877	-146.348483
9.150000	-0.422419	-140.271226	-22.203314	-34.216365	-22.203314	-34.216365	-0.440492	-147.052250
9.200000	-0.427911	-140.930854	-22.151164	-34.745525	-22.151164	-34.745525	-0.446188	-147.756771
9.250000	-0.433444	-141.590555	-22.098980	-35.276117	-22.098980	-35.276117	-0.451927	-148.461669
9.300000	-0.439048	-142.250470	-22.046509	-35.809205	-22.046509	-35.809205	-0.457736	-149.167335
9.350000	-0.444703	-142.910538	-21.993926	-36.344075	-21.993926	-36.344075	-0.463598	-149.873550
9.400000	-0.450420	-143.570866	-21.941149	-36.881055	-21.941149	-36.881055	-0.469523	-150.580518
9.450000	-0.456198	-144.231452	-21.888181	-37.420145	-21.888181	-37.420145	-0.475509	-151.288239
9.500000	-0.462028	-144.892317	-21.835107	-37.960955	-21.835107	-37.960955	-0.481549	-151.996668
9.550000	-0.467930	-145.553574	-21.781761	-38.504175	-21.781761	-38.504175	-0.487660	-152.706088
9.600000	-0.473875	-146.215106	-21.728397	-39.048733	-21.728397	-39.048733	-0.493816	-153.416140
9.650000	-0.479901	-146.877188	-21.674673	-39.595967	-21.674673	-39.595967	-0.500054	-154.127454
9.700000	-0.485961	-147.539517	-21.621017	-40.144172	-21.621017	-40.144172	-0.506326	-154.839293
9.750000	-0.492113	-148.202584	-21.566908	-40.695289	-21.566908	-40.695289	-0.512690	-155.552703
9.800000	-0.498289	-148.865842	-21.512954	-41.247028	-21.512954	-41.247028	-0.519079	-156.266495
9.850000	-0.504567	-149.530054	-21.458442	-41.801885	-21.458442	-41.801885	-0.525570	-156.982203
9.900000	-0.510859	-150.194375	-21.404176	-42.357041	-21.404176	-42.357041	-0.532076	-157.698120
9.950000	-0.517264	-150.859896	-21.349235	-42.915495	-21.349235	-42.915495	-0.538695	-158.416334
10.000000	-0.523673	-151.525417	-21.294639	-43.473948	-21.294639	-43.473948	-0.545319	-159.134547
