! freq	dB(S11)	phase(S11)	dB(S12)	phase(S12)	
!     	dB(S21)	phase(S21)	dB(S22)	phase(S22)	
!S-par simulation data
#  GHz  S  DB  R 50
0.000000	-0.000000	0.000000	-291.773080	180.000000	-291.773080	180.000000	0.000000	0.000000
0.050000	-0.000485	-0.771080	-59.109718	88.097343	-59.109718	88.097343	-0.000785	-1.230261
0.100000	-0.001647	-1.538695	-53.070377	87.563816	-53.070377	87.563816	-0.002662	-2.454808
0.150000	-0.003014	-2.302342	-49.551282	86.731951	-49.551282	86.731951	-0.004855	-3.672805
0.200000	-0.004311	-3.063251	-47.060131	85.810909	-47.060131	85.810909	-0.006922	-4.886222
0.250000	-0.005495	-3.822897	-45.130950	84.854280	-45.130950	84.854280	-0.008797	-6.097438
0.300000	-0.006580	-4.581910	-43.557292	83.877069	-43.557292	83.877069	-0.010505	-7.307419
0.350000	-0.007602	-5.340654	-42.228937	82.888590	-42.228937	82.888590	-0.012106	-8.516711
0.400000	-0.008591	-6.099269	-41.080200	81.894235	-41.080200	81.894235	-0.013647	-9.725492
0.450000	-0.009567	-6.857763	-40.069003	80.897389	-40.069003	80.897389	-0.015164	-10.933699
0.500000	-0.010546	-7.616106	-39.166100	79.900460	-39.166100	79.900460	-0.016681	-12.141274
0.550000	-0.011533	-8.374232	-38.350904	78.904673	-38.350904	78.904673	-0.018206	-13.348078
0.600000	-0.012532	-9.132070	-37.608215	77.910820	-37.608215	77.910820	-0.019745	-14.553957
0.650000	-0.013545	-9.889544	-36.926487	76.919400	-36.926487	76.919400	-0.021302	-15.758756
0.700000	-0.014573	-10.646585	-36.296740	75.930718	-36.296740	75.930718	-0.022875	-16.962323
0.750000	-0.015616	-11.403091	-35.712000	74.945129	-35.712000	74.945129	-0.024466	-18.164419
0.800000	-0.016675	-12.158993	-35.166493	73.962699	-35.166493	73.962699	-0.026074	-19.364896
0.850000	-0.017749	-12.914246	-34.655456	72.983364	-34.655456	72.983364	-0.027697	-20.563655
0.900000	-0.018836	-13.668851	-34.174834	72.006885	-34.174834	72.006885	-0.029334	-21.760706
0.950000	-0.019938	-14.422725	-33.721499	71.033392	-33.721499	71.033392	-0.030983	-22.955841
1.000000	-0.021054	-15.175830	-33.292691	70.062828	-33.292691	70.062828	-0.032645	-24.148958
1.050000	-0.022184	-15.928131	-32.886053	69.095129	-32.886053	69.095129	-0.034318	-25.339962
1.100000	-0.023326	-16.679598	-32.499558	68.130229	-32.499558	68.130229	-0.036001	-26.528770
1.150000	-0.024481	-17.430204	-32.131450	67.168067	-32.131450	67.168067	-0.037694	-27.715303
1.200000	-0.025648	-18.179927	-31.780198	66.208588	-31.780198	66.208588	-0.039396	-28.899489
1.250000	-0.026827	-18.928746	-31.444460	65.251741	-31.444460	65.251741	-0.041106	-30.081262
1.300000	-0.028016	-19.676602	-31.123131	64.297597	-31.123131	64.297597	-0.042823	-31.260452
1.350000	-0.029216	-20.423517	-30.815078	63.346008	-30.815078	63.346008	-0.044546	-32.437108
1.400000	-0.030425	-21.169476	-30.519366	62.396950	-30.519366	62.396950	-0.046275	-33.611177
1.450000	-0.031643	-21.914464	-30.235158	61.450406	-30.235158	61.450406	-0.048009	-34.782610
1.500000	-0.032868	-22.658469	-29.961702	60.506365	-29.961702	60.506365	-0.049747	-35.951362
1.550000	-0.034101	-23.401477	-29.698320	59.564824	-29.698320	59.564824	-0.051489	-37.117390
1.600000	-0.035341	-24.143476	-29.444400	58.625787	-29.444400	58.625787	-0.053233	-38.280652
1.650000	-0.036587	-24.884454	-29.199382	57.689260	-29.199382	57.689260	-0.054980	-39.441109
1.700000	-0.037839	-25.624399	-28.962761	56.755257	-28.962761	56.755257	-0.056729	-40.598724
1.750000	-0.039096	-26.363299	-28.734071	55.823795	-28.734071	55.823795	-0.058479	-41.753463
1.800000	-0.040358	-27.101143	-28.512887	54.894895	-28.512887	54.894895	-0.060230	-42.905291
1.850000	-0.041625	-27.837918	-28.298819	53.968582	-28.298819	53.968582	-0.061983	-44.054175
1.900000	-0.042896	-28.573615	-28.091506	53.044882	-28.091506	53.044882	-0.063736	-45.200086
1.950000	-0.044172	-29.308220	-27.890616	52.123826	-27.890616	52.123826	-0.065491	-46.342994
2.000000	-0.045451	-30.041722	-27.695840	51.205445	-27.695840	51.205445	-0.067245	-47.482870
2.050000	-0.046734	-30.774110	-27.506893	50.289772	-27.506893	50.289772	-0.069001	-48.619688
2.100000	-0.048021	-31.505372	-27.323507	49.376842	-27.323507	49.376842	-0.070757	-49.753423
2.150000	-0.049312	-32.235496	-27.145436	48.466689	-27.145436	48.466689	-0.072514	-50.884050
2.200000	-0.050607	-32.964470	-26.972448	47.559350	-26.972448	47.559350	-0.074273	-52.011547
2.250000	-0.051905	-33.692284	-26.804326	46.654861	-26.804326	46.654861	-0.076032	-53.135891
2.300000	-0.053207	-34.418924	-26.640867	45.753259	-26.640867	45.753259	-0.077794	-54.257064
2.350000	-0.054512	-35.144379	-26.481881	44.854581	-26.481881	44.854581	-0.079557	-55.375045
2.400000	-0.055822	-35.868638	-26.327187	43.958863	-26.327187	43.958863	-0.081323	-56.489818
2.450000	-0.057136	-36.591689	-26.176617	43.066141	-26.176617	43.066141	-0.083091	-57.601366
2.500000	-0.058455	-37.313520	-26.030012	42.176450	-26.030012	42.176450	-0.084863	-58.709674
2.550000	-0.059777	-38.034066	-25.887280	41.289962	-25.887280	41.289962	-0.086638	-59.814588
2.600000	-0.061105	-38.753369	-25.748217	40.406577	-25.748217	40.406577	-0.088418	-60.916236
2.650000	-0.062438	-39.471417	-25.612688	39.526329	-25.612688	39.526329	-0.090202	-62.014607
2.700000	-0.063775	-40.188198	-25.480564	38.649251	-25.480564	38.649251	-0.091991	-63.109693
2.750000	-0.065118	-40.903703	-25.351723	37.775373	-25.351723	37.775373	-0.093787	-64.201486
2.800000	-0.066467	-41.617920	-25.226050	36.904725	-25.226050	36.904725	-0.095588	-65.289980
2.850000	-0.067821	-42.330838	-25.103434	36.037336	-25.103434	36.037336	-0.097396	-66.375170
2.900000	-0.069182	-43.042448	-24.983768	35.173234	-24.983768	35.173234	-0.099212	-67.457053
2.950000	-0.070549	-43.752739	-24.866952	34.312444	-24.866952	34.312444	-0.101035	-68.535628
3.000000	-0.071923	-44.461700	-24.752891	33.454991	-24.752891	33.454991	-0.102867	-69.610893
3.050000	-0.073304	-45.169322	-24.641491	32.600899	-24.641491	32.600899	-0.104708	-70.682850
3.100000	-0.074692	-45.875596	-24.532664	31.750190	-24.532664	31.750190	-0.106559	-71.751502
3.150000	-0.076087	-46.580512	-24.426326	30.902883	-24.426326	30.902883	-0.108420	-72.816853
3.200000	-0.077491	-47.284061	-24.322395	30.058998	-24.322395	30.058998	-0.110292	-73.878907
3.250000	-0.078902	-47.986235	-24.220794	29.218551	-24.220794	29.218551	-0.112175	-74.937673
3.300000	-0.080322	-48.687024	-24.121446	28.381559	-24.121446	28.381559	-0.114071	-75.993157
3.350000	-0.081751	-49.386421	-24.024280	27.548035	-24.024280	27.548035	-0.115979	-77.045370
3.400000	-0.083189	-50.084418	-23.929226	26.717992	-23.929226	26.717992	-0.117900	-78.094323
3.450000	-0.084636	-50.781006	-23.836217	25.891441	-23.836217	25.891441	-0.119835	-79.140029
3.500000	-0.086093	-51.476180	-23.745188	25.068391	-23.745188	25.068391	-0.121784	-80.182500
3.550000	-0.087560	-52.169931	-23.656077	24.248849	-23.656077	24.248849	-0.123748	-81.221753
3.600000	-0.089038	-52.862252	-23.568823	23.432823	-23.568823	23.432823	-0.125728	-82.257804
3.650000	-0.090526	-53.553139	-23.483368	22.620314	-23.483368	22.620314	-0.127723	-83.290670
3.700000	-0.092025	-54.242584	-23.399655	21.811328	-23.399655	21.811328	-0.129736	-84.320372
3.750000	-0.093535	-54.930581	-23.317629	21.005864	-23.317629	21.005864	-0.131765	-85.346929
3.800000	-0.095058	-55.617062	-23.237275	20.204075	-23.237275	20.204075	-0.133813	-86.370228
3.850000	-0.096593	-56.302085	-23.158503	19.405805	-23.158503	19.405805	-0.135880	-87.390429
3.900000	-0.098139	-56.985645	-23.081261	18.611051	-23.081261	18.611051	-0.137965	-88.407557
3.950000	-0.099699	-57.667737	-23.005503	17.819806	-23.005503	17.819806	-0.140069	-89.421637
4.000000	-0.101272	-58.348358	-22.931181	17.032064	-22.931181	17.032064	-0.142194	-90.432696
4.050000	-0.102858	-59.027504	-22.858250	16.247815	-22.858250	16.247815	-0.144339	-91.440762
4.100000	-0.104458	-59.705170	-22.786665	15.467049	-22.786665	15.467049	-0.146505	-92.445865
4.150000	-0.106072	-60.381355	-22.716384	14.689754	-22.716384	14.689754	-0.148693	-93.448033
4.200000	-0.107700	-61.056056	-22.647364	13.915916	-22.647364	13.915916	-0.150903	-94.447299
4.250000	-0.109344	-61.729269	-22.579565	13.145521	-22.579565	13.145521	-0.153135	-95.443694
4.300000	-0.111002	-62.400993	-22.512947	12.378551	-22.512947	12.378551	-0.155391	-96.437253
4.350000	-0.112676	-63.071226	-22.447471	11.614989	-22.447471	11.614989	-0.157670	-97.428010
4.400000	-0.114367	-63.739966	-22.383101	10.854815	-22.383101	10.854815	-0.159974	-98.416001
4.450000	-0.116073	-64.407213	-22.319798	10.098008	-22.319798	10.098008	-0.162302	-99.401261
4.500000	-0.117796	-65.072966	-22.257529	9.344545	-22.257529	9.344545	-0.164655	-100.383829
4.550000	-0.119536	-65.737224	-22.196257	8.594402	-22.196257	8.594402	-0.167035	-101.363742
4.600000	-0.121294	-66.399986	-22.135950	7.847555	-22.135950	7.847555	-0.169440	-102.341041
4.650000	-0.123070	-67.061254	-22.076573	7.103976	-22.076573	7.103976	-0.171872	-103.315765
4.700000	-0.124864	-67.721027	-22.018094	6.363636	-22.018094	6.363636	-0.174332	-104.287957
4.750000	-0.126677	-68.379306	-21.960483	5.626508	-21.960483	5.626508	-0.176819	-105.257657
4.800000	-0.128509	-69.036092	-21.903707	4.892559	-21.903707	4.892559	-0.179335	-106.224909
4.850000	-0.130360	-69.691387	-21.847738	4.161758	-21.847738	4.161758	-0.181879	-107.189757
4.900000	-0.132232	-70.345192	-21.792546	3.434071	-21.792546	3.434071	-0.184452	-108.152245
4.950000	-0.134124	-70.997509	-21.738101	2.709463	-21.738101	2.709463	-0.187056	-109.112420
5.000000	-0.136036	-71.648341	-21.684377	1.987899	-21.684377	1.987899	-0.189689	-110.070326
5.050000	-0.137972	-72.297625	-21.631360	1.269470	-21.631360	1.269470	-0.192355	-111.025917
5.100000	-0.139928	-72.945428	-21.579007	0.554005	-21.579007	0.554005	-0.195052	-111.979339
5.150000	-0.141908	-73.591755	-21.527292	-0.158536	-21.527292	-0.158536	-0.197781	-112.930641
5.200000	-0.143909	-74.236608	-21.476189	-0.868194	-21.476189	-0.868194	-0.200542	-113.879873
5.250000	-0.145935	-74.879991	-21.425674	-1.575011	-21.425674	-1.575011	-0.203336	-114.827083
5.300000	-0.147983	-75.521908	-21.375722	-2.279030	-21.375722	-2.279030	-0.206163	-115.772324
5.350000	-0.150056	-76.162363	-21.326308	-2.980296	-21.326308	-2.980296	-0.209024	-116.715646
5.400000	-0.152154	-76.801361	-21.277410	-3.678855	-21.277410	-3.678855	-0.211919	-117.657102
5.450000	-0.154277	-77.438906	-21.229005	-4.374752	-21.229005	-4.374752	-0.214849	-118.596745
5.500000	-0.156425	-78.075003	-21.181070	-5.068037	-21.181070	-5.068037	-0.217814	-119.534627
5.550000	-0.158599	-78.709657	-21.133583	-5.758757	-21.133583	-5.758757	-0.220814	-120.470802
5.600000	-0.160800	-79.342874	-21.086523	-6.446964	-21.086523	-6.446964	-0.223851	-121.405326
5.650000	-0.163029	-79.974660	-21.039868	-7.132707	-21.039868	-7.132707	-0.226925	-122.338254
5.700000	-0.165285	-80.605020	-20.993598	-7.816038	-20.993598	-7.816038	-0.230036	-123.269642
5.750000	-0.167569	-81.233960	-20.947694	-8.497011	-20.947694	-8.497011	-0.233184	-124.199545
5.800000	-0.169881	-81.861488	-20.902135	-9.175680	-20.902135	-9.175680	-0.236371	-125.128021
5.850000	-0.172229	-82.487366	-20.856912	-9.851725	-20.856912	-9.851725	-0.239602	-126.054907
5.900000	-0.174607	-83.111784	-20.811999	-10.525483	-20.811999	-10.525483	-0.242875	-126.980427
5.950000	-0.177002	-83.735479	-20.767341	-11.198149	-20.767341	-11.198149	-0.246169	-127.905317
6.000000	-0.179444	-84.357002	-20.722983	-11.867542	-20.722983	-11.867542	-0.249524	-128.828318
6.050000	-0.181898	-84.978048	-20.678855	-12.536250	-20.678855	-12.536250	-0.252895	-129.750943
6.100000	-0.184407	-85.596709	-20.634975	-13.201535	-20.634975	-13.201535	-0.256336	-130.671688
6.150000	-0.186922	-86.215135	-20.591312	-13.866500	-20.591312	-13.866500	-0.259785	-131.592266
6.200000	-0.189500	-86.830969	-20.547838	-14.527944	-20.547838	-14.527944	-0.263313	-132.511020
6.250000	-0.192079	-87.446803	-20.504580	-15.189388	-20.504580	-15.189388	-0.266843	-133.429774
6.300000	-0.194729	-88.059846	-20.461440	-15.847265	-20.461440	-15.847265	-0.270461	-134.346808
6.350000	-0.197379	-88.672889	-20.418514	-16.505142	-20.418514	-16.505142	-0.274080	-135.263842
6.400000	-0.200097	-89.283409	-20.375656	-17.160010	-20.375656	-17.160010	-0.277781	-136.179553
6.450000	-0.202821	-89.893699	-20.332995	-17.814603	-20.332995	-17.814603	-0.281492	-137.095143
6.500000	-0.205609	-90.501728	-20.290364	-18.466702	-20.290364	-18.466702	-0.285279	-138.009763
6.550000	-0.208410	-91.109305	-20.247905	-19.118303	-20.247905	-19.118303	-0.289083	-138.924189
6.600000	-0.211271	-91.714878	-20.205448	-19.767882	-20.205448	-19.767882	-0.292958	-139.837956
6.650000	-0.214151	-92.319782	-20.163131	-20.416787	-20.163131	-20.416787	-0.296857	-140.751503
6.700000	-0.217072	-92.923369	-20.120859	-21.064472	-20.120859	-21.064472	-0.300805	-141.664730
6.750000	-0.220040	-93.525482	-20.078601	-21.710849	-20.078601	-21.710849	-0.304808	-142.577659
6.800000	-0.223048	-94.126352	-20.036371	-22.356201	-20.036371	-22.356201	-0.308858	-143.490417
6.850000	-0.226097	-94.725989	-19.994154	-23.000602	-19.994154	-23.000602	-0.312957	-144.403072
6.900000	-0.229188	-95.324404	-19.951940	-23.644125	-19.951940	-23.644125	-0.317103	-145.315693
6.950000	-0.232320	-95.921608	-19.909716	-24.286844	-19.909716	-24.286844	-0.321299	-146.228348
7.000000	-0.235496	-96.517611	-19.867471	-24.928835	-19.867471	-24.928835	-0.325544	-147.141107
7.050000	-0.238715	-97.112424	-19.825193	-25.570173	-19.825193	-25.570173	-0.329838	-148.054038
7.100000	-0.241978	-97.706058	-19.782872	-26.210934	-19.782872	-26.210934	-0.334183	-148.967212
7.150000	-0.245286	-98.298524	-19.740497	-26.851197	-19.740497	-26.851197	-0.338578	-149.880699
7.200000	-0.248639	-98.889834	-19.698058	-27.491038	-19.698058	-27.491038	-0.343024	-150.794570
7.250000	-0.252039	-99.479998	-19.655545	-28.130538	-19.655545	-28.130538	-0.347521	-151.708896
7.300000	-0.255485	-100.069030	-19.612948	-28.769775	-19.612948	-28.769775	-0.352070	-152.623750
7.350000	-0.258978	-100.656939	-19.570258	-29.408829	-19.570258	-29.408829	-0.356672	-153.539203
7.400000	-0.262519	-101.243739	-19.527465	-30.047782	-19.527465	-30.047782	-0.361326	-154.455329
7.450000	-0.266109	-101.829440	-19.484561	-30.686714	-19.484561	-30.686714	-0.366033	-155.372199
7.500000	-0.269748	-102.414055	-19.441538	-31.325708	-19.441538	-31.325708	-0.370793	-156.289889
7.550000	-0.273439	-102.997550	-19.398372	-31.964857	-19.398372	-31.964857	-0.375609	-157.208514
7.600000	-0.277180	-103.579985	-19.355070	-32.604241	-19.355070	-32.604241	-0.380479	-158.128113
7.650000	-0.280973	-104.161371	-19.311624	-33.243943	-19.311624	-33.243943	-0.385404	-159.048761
7.700000	-0.284817	-104.741722	-19.268029	-33.884048	-19.268029	-33.884048	-0.390383	-159.970534
7.750000	-0.288714	-105.321050	-19.224276	-34.524642	-19.224276	-34.524642	-0.395417	-160.893508
7.800000	-0.292664	-105.899368	-19.180361	-35.165808	-19.180361	-35.165808	-0.400507	-161.817758
7.850000	-0.296668	-106.476688	-19.136277	-35.807633	-19.136277	-35.807633	-0.405653	-162.743362
7.900000	-0.300726	-107.053024	-19.092018	-36.450202	-19.092018	-36.450202	-0.410854	-163.670397
7.950000	-0.304839	-107.628388	-19.047581	-37.093602	-19.047581	-37.093602	-0.416112	-164.598940
8.000000	-0.309008	-108.202794	-19.002961	-37.737919	-19.002961	-37.737919	-0.421427	-165.529070
8.050000	-0.313233	-108.776255	-18.958153	-38.383240	-18.958153	-38.383240	-0.426798	-166.460864
8.100000	-0.317515	-109.348785	-18.913155	-39.029651	-18.913155	-39.029651	-0.432226	-167.394402
8.150000	-0.321854	-109.920396	-18.867963	-39.677239	-18.867963	-39.677239	-0.437712	-168.329763
8.200000	-0.326252	-110.491103	-18.822576	-40.326092	-18.822576	-40.326092	-0.443255	-169.267026
8.250000	-0.330708	-111.060919	-18.776991	-40.976297	-18.776991	-40.976297	-0.448856	-170.206273
8.300000	-0.335224	-111.629858	-18.731208	-41.627939	-18.731208	-41.627939	-0.454515	-171.147582
8.350000	-0.339800	-112.197934	-18.685226	-42.281107	-18.685226	-42.281107	-0.460232	-172.091036
8.400000	-0.344436	-112.765161	-18.639046	-42.935887	-18.639046	-42.935887	-0.466007	-173.036714
8.450000	-0.349134	-113.331552	-18.592668	-43.592365	-18.592668	-43.592365	-0.471840	-173.984700
8.500000	-0.353893	-113.897122	-18.546096	-44.250628	-18.546096	-44.250628	-0.477732	-174.935075
8.550000	-0.358715	-114.461886	-18.499331	-44.910761	-18.499331	-44.910761	-0.483682	-175.887921
8.600000	-0.363600	-115.025858	-18.452377	-45.572851	-18.452377	-45.572851	-0.489691	-176.843321
8.650000	-0.368549	-115.589051	-18.405240	-46.236983	-18.405240	-46.236983	-0.495759	-177.801358
8.700000	-0.373561	-116.151481	-18.357925	-46.903243	-18.357925	-46.903243	-0.501885	-178.762116
8.750000	-0.378639	-116.713163	-18.310439	-47.571715	-18.310439	-47.571715	-0.508069	-179.725677
8.800000	-0.383784	-117.274080	-18.262773	-48.242588	-18.262773	-48.242588	-0.514315	179.307744
8.850000	-0.388995	-117.834279	-18.214955	-48.915852	-18.214955	-48.915852	-0.520619	178.338186
8.900000	-0.394273	-118.393776	-18.166996	-49.591591	-18.166996	-49.591591	-0.526981	177.365563
8.950000	-0.399618	-118.952585	-18.118909	-50.269891	-18.118909	-50.269891	-0.533401	176.389791
9.000000	-0.405030	-119.510723	-18.070708	-50.950838	-18.070708	-50.950838	-0.539880	175.410786
9.050000	-0.410511	-120.068203	-18.022410	-51.634520	-18.022410	-51.634520	-0.546416	174.428461
9.100000	-0.416060	-120.625042	-17.974033	-52.321024	-17.974033	-52.321024	-0.553009	173.442732
9.150000	-0.421679	-121.181255	-17.925597	-53.010442	-17.925597	-53.010442	-0.559660	172.453513
9.200000	-0.427367	-121.736857	-17.877123	-53.702866	-17.877123	-53.702866	-0.566368	171.460719
9.250000	-0.433125	-122.291865	-17.828637	-54.398393	-17.828637	-54.398393	-0.573132	170.464264
9.300000	-0.438954	-122.846295	-17.780164	-55.097123	-17.780164	-55.097123	-0.579952	169.464062
9.350000	-0.444854	-123.400162	-17.731734	-55.799162	-17.731734	-55.799162	-0.586828	168.460027
9.400000	-0.450825	-123.953482	-17.683378	-56.504621	-17.683378	-56.504621	-0.593759	167.452074
9.450000	-0.456869	-124.506272	-17.635131	-57.213620	-17.635131	-57.213620	-0.600745	166.440118
9.500000	-0.462985	-125.058548	-17.587030	-57.926288	-17.587030	-57.926288	-0.607785	165.424072
9.550000	-0.469174	-125.610326	-17.539113	-58.642763	-17.539113	-58.642763	-0.614878	164.403851
9.600000	-0.475437	-126.161623	-17.491423	-59.363197	-17.491423	-59.363197	-0.622024	163.379369
9.650000	-0.481773	-126.712457	-17.444004	-60.087755	-17.444004	-60.087755	-0.629222	162.350542
9.700000	-0.488184	-127.262842	-17.396905	-60.816619	-17.396905	-60.816619	-0.636471	161.317285
9.750000	-0.494669	-127.812798	-17.350175	-61.549989	-17.350175	-61.549989	-0.643770	160.279512
9.800000	-0.501229	-128.362340	-17.303865	-62.288087	-17.303865	-62.288087	-0.651118	159.237140
9.850000	-0.507865	-128.911486	-17.258030	-63.031155	-17.258030	-63.031155	-0.658515	158.190085
9.900000	-0.514576	-129.460253	-17.212725	-63.779460	-17.212725	-63.779460	-0.665959	157.138264
9.950000	-0.521364	-130.008659	-17.168006	-64.533297	-17.168006	-64.533297	-0.673449	156.081593
10.000000	-0.528227	-130.556721	-17.123931	-65.292985	-17.123931	-65.292985	-0.680984	155.019990
