! freq	dB(S11)	phase(S11)	dB(S12)	phase(S12)	
!     	dB(S21)	phase(S21)	dB(S22)	phase(S22)	
!S-par simulation data
#  GHz  S  DB  R 50
0.000000	-0.000000	0.000000	-327.020806	0.000000	-327.020806	0.000000	-0.000000	0.000000
0.050000	-0.000127	-1.083631	-59.023108	88.476514	-59.023108	88.476514	-0.000115	-0.871946
0.100000	-0.000504	-2.166976	-53.057922	87.156834	-53.057922	87.156834	-0.000456	-1.743619
0.150000	-0.001119	-3.249766	-49.593904	86.050942	-49.593904	86.050942	-0.001010	-2.614766
0.200000	-0.001953	-4.331767	-47.142538	85.073267	-47.142538	85.073267	-0.001755	-3.485176
0.250000	-0.002998	-5.412700	-45.240818	84.156344	-45.240818	84.156344	-0.002677	-4.354612
0.300000	-0.004210	-6.492486	-43.684565	83.257121	-43.684565	83.257121	-0.003735	-5.223029
0.350000	-0.005572	-7.570948	-42.366982	82.361156	-42.366982	82.361156	-0.004909	-6.090301
0.400000	-0.007059	-8.647983	-41.224482	81.461362	-41.224482	81.461362	-0.006174	-6.956376
0.450000	-0.008646	-9.723521	-40.216155	80.555483	-40.216155	80.555483	-0.007507	-7.821234
0.500000	-0.010310	-10.797519	-39.314063	79.643306	-39.314063	79.643306	-0.008887	-8.684880
0.550000	-0.012030	-11.869956	-38.498241	78.725410	-38.498241	78.725410	-0.010299	-9.547332
0.600000	-0.013790	-12.940829	-37.753912	77.802615	-37.753912	77.802615	-0.011730	-10.408622
0.650000	-0.015574	-14.010145	-37.069826	76.875764	-37.069826	76.875764	-0.013168	-11.268782
0.700000	-0.017370	-15.077916	-36.437213	75.945632	-36.437213	75.945632	-0.014607	-12.127847
0.750000	-0.019169	-16.144162	-35.849104	75.012906	-35.849104	75.012906	-0.016042	-12.985848
0.800000	-0.020965	-17.208898	-35.299871	74.078178	-35.299871	74.078178	-0.017469	-13.842810
0.850000	-0.022751	-18.272140	-34.784897	73.141960	-34.784897	73.141960	-0.018886	-14.698754
0.900000	-0.024524	-19.333899	-34.300354	72.204691	-34.300354	72.204691	-0.020293	-15.553694
0.950000	-0.026282	-20.394183	-33.843025	71.266750	-33.843025	71.266750	-0.021689	-16.407639
1.000000	-0.028024	-21.452996	-33.410189	70.328468	-33.410189	70.328468	-0.023076	-17.260592
1.050000	-0.029749	-22.510335	-32.999516	69.390133	-32.999516	69.390133	-0.024454	-18.112550
1.100000	-0.031459	-23.566194	-32.608999	68.451996	-32.608999	68.451996	-0.025823	-18.963507
1.150000	-0.033154	-24.620563	-32.236899	67.514284	-32.236899	67.514284	-0.027187	-19.813452
1.200000	-0.034834	-25.673427	-31.881693	66.577196	-31.881693	66.577196	-0.028545	-20.662372
1.250000	-0.036502	-26.724768	-31.542045	65.640913	-31.542045	65.640913	-0.029899	-21.510250
1.300000	-0.038158	-27.774498	-31.216845	64.705646	-31.216845	64.705646	-0.031250	-22.357020
1.350000	-0.039804	-28.822660	-30.904973	63.771506	-30.904973	63.771506	-0.032600	-23.202709
1.400000	-0.041442	-29.869228	-30.605492	62.838628	-30.605492	62.838628	-0.033949	-24.047293
1.450000	-0.043074	-30.914175	-30.317563	61.907135	-30.317563	61.907135	-0.035298	-24.890750
1.500000	-0.044700	-31.957473	-30.040433	60.977141	-30.040433	60.977141	-0.036649	-25.733057
1.550000	-0.046322	-32.999093	-29.773418	60.048753	-29.773418	60.048753	-0.038001	-26.574191
1.600000	-0.047941	-34.039007	-29.515902	59.122068	-29.515902	59.122068	-0.039355	-27.414126
1.650000	-0.049559	-35.077183	-29.267323	58.197181	-29.267323	58.197181	-0.040712	-28.252840
1.700000	-0.051177	-36.113593	-29.027168	57.274177	-29.027168	57.274177	-0.042073	-29.090307
1.750000	-0.052794	-37.148207	-28.794969	56.353138	-28.794969	56.353138	-0.043437	-29.926504
1.800000	-0.054414	-38.180995	-28.570294	55.434141	-28.570294	55.434141	-0.044805	-30.761408
1.850000	-0.056035	-39.211930	-28.352749	54.517258	-28.352749	54.517258	-0.046178	-31.594994
1.900000	-0.057659	-40.240981	-28.141968	53.602558	-28.141968	53.602558	-0.047555	-32.427239
1.950000	-0.059287	-41.268123	-27.937614	52.690107	-27.937614	52.690107	-0.048937	-33.258122
2.000000	-0.060919	-42.293329	-27.739374	51.779965	-27.739374	51.779965	-0.050324	-34.087619
2.050000	-0.062555	-43.316571	-27.546958	50.872190	-27.546958	50.872190	-0.051716	-34.915709
2.100000	-0.064197	-44.337827	-27.360096	49.966839	-27.360096	49.966839	-0.053113	-35.742371
2.150000	-0.065845	-45.357071	-27.178535	49.063964	-27.178535	49.063964	-0.054516	-36.567584
2.200000	-0.067498	-46.374282	-27.002041	48.163615	-27.002041	48.163615	-0.055924	-37.391328
2.250000	-0.069158	-47.389437	-26.830393	47.265838	-26.830393	47.265838	-0.057338	-38.213582
2.300000	-0.070825	-48.402516	-26.663385	46.370680	-26.663385	46.370680	-0.058758	-39.034329
2.350000	-0.072499	-49.413499	-26.500823	45.478182	-26.500823	45.478182	-0.060184	-39.853549
2.400000	-0.074180	-50.422368	-26.342526	44.588385	-26.342526	44.588385	-0.061616	-40.671224
2.450000	-0.075870	-51.429107	-26.188320	43.701327	-26.188320	43.701327	-0.063054	-41.487337
2.500000	-0.077567	-52.433698	-26.038044	42.817044	-26.038044	42.817044	-0.064498	-42.301870
2.550000	-0.079273	-53.436034	-25.891599	41.935694	-25.891599	41.935694	-0.065950	-43.114738
2.600000	-0.080988	-54.436194	-25.748785	41.057188	-25.748785	41.057188	-0.067407	-43.925994
2.650000	-0.082712	-55.434165	-25.609465	40.181557	-25.609465	40.181557	-0.068872	-44.735622
2.700000	-0.084445	-56.429938	-25.473508	39.308829	-25.473508	39.308829	-0.070344	-45.543607
2.750000	-0.086188	-57.423502	-25.340791	38.439029	-25.340791	38.439029	-0.071823	-46.349936
2.800000	-0.087941	-58.414850	-25.211197	37.572184	-25.211197	37.572184	-0.073310	-47.154595
2.850000	-0.089704	-59.403973	-25.084614	36.708316	-25.084614	36.708316	-0.074804	-47.957571
2.900000	-0.091478	-60.390866	-24.960935	35.847446	-24.960935	35.847446	-0.076307	-48.758851
2.950000	-0.093262	-61.375524	-24.840059	34.989595	-24.840059	34.989595	-0.077817	-49.558425
3.000000	-0.095058	-62.357943	-24.721889	34.134780	-24.721889	34.134780	-0.079336	-50.356280
3.050000	-0.096865	-63.338121	-24.606332	33.283019	-24.606332	33.283019	-0.080864	-51.152406
3.100000	-0.098684	-64.316057	-24.493300	32.434327	-24.493300	32.434327	-0.082400	-51.946792
3.150000	-0.100515	-65.291750	-24.382707	31.588717	-24.382707	31.588717	-0.083946	-52.739429
3.200000	-0.102359	-66.265201	-24.274471	30.746202	-24.274471	30.746202	-0.085501	-53.530308
3.250000	-0.104216	-67.236413	-24.168516	29.906793	-24.168516	29.906793	-0.087067	-54.319420
3.300000	-0.106087	-68.205389	-24.064765	29.070500	-24.064765	29.070500	-0.088642	-55.106757
3.350000	-0.107971	-69.172132	-23.963146	28.237331	-23.963146	28.237331	-0.090228	-55.892311
3.400000	-0.109870	-70.136649	-23.863590	27.407292	-23.863590	27.407292	-0.091825	-56.676076
3.450000	-0.111783	-71.098946	-23.766031	26.580390	-23.766031	26.580390	-0.093433	-57.458045
3.500000	-0.113712	-72.059031	-23.670403	25.756628	-23.670403	25.756628	-0.095052	-58.238211
3.550000	-0.115656	-73.016912	-23.576644	24.936009	-23.576644	24.936009	-0.096684	-59.016570
3.600000	-0.117616	-73.972599	-23.484695	24.118536	-23.484695	24.118536	-0.098328	-59.793116
3.650000	-0.119594	-74.926103	-23.394497	23.304209	-23.394497	23.304209	-0.099984	-60.567846
3.700000	-0.121588	-75.877436	-23.305996	22.493027	-23.305996	22.493027	-0.101654	-61.340754
3.750000	-0.123600	-76.826610	-23.219135	21.684988	-23.219135	21.684988	-0.103337	-62.111839
3.800000	-0.125630	-77.773546	-23.133895	20.880226	-23.133895	20.880226	-0.105034	-62.881016
3.850000	-0.127680	-78.718354	-23.050192	20.078599	-23.050192	20.078599	-0.106746	-63.648364
3.900000	-0.129749	-79.661050	-22.967976	19.280102	-22.967976	19.280102	-0.108473	-64.413880
3.950000	-0.131837	-80.601650	-22.887200	18.484728	-22.887200	18.484728	-0.110215	-65.177563
4.000000	-0.133946	-81.540173	-22.807817	17.692468	-22.807817	17.692468	-0.111972	-65.939412
4.050000	-0.136076	-82.476636	-22.729783	16.903315	-22.729783	16.903315	-0.113745	-66.699428
4.100000	-0.138228	-83.411060	-22.653054	16.117258	-22.653054	16.117258	-0.115535	-67.457609
4.150000	-0.140401	-84.343467	-22.577588	15.334285	-22.577588	15.334285	-0.117341	-68.213957
4.200000	-0.142597	-85.273876	-22.503343	14.554385	-22.503343	14.554385	-0.119165	-68.968472
4.250000	-0.144817	-86.202311	-22.430279	13.777543	-22.430279	13.777543	-0.121007	-69.721157
4.300000	-0.147060	-87.128795	-22.358358	13.003745	-22.358358	13.003745	-0.122867	-70.472013
4.350000	-0.149327	-88.053353	-22.287540	12.232975	-22.287540	12.232975	-0.124746	-71.221043
4.400000	-0.151620	-88.976010	-22.217790	11.465216	-22.217790	11.465216	-0.126644	-71.968250
4.450000	-0.153938	-89.896791	-22.149071	10.700450	-22.149071	10.700450	-0.128561	-72.713636
4.500000	-0.156283	-90.815725	-22.081347	9.938659	-22.081347	9.938659	-0.130499	-73.457207
4.550000	-0.158654	-91.732837	-22.014584	9.179821	-22.014584	9.179821	-0.132457	-74.198966
4.600000	-0.161053	-92.648159	-21.948749	8.423916	-21.948749	8.423916	-0.134436	-74.938918
4.650000	-0.163480	-93.561717	-21.883808	7.670920	-21.883808	7.670920	-0.136437	-75.677069
4.700000	-0.165935	-94.473544	-21.819730	6.920810	-21.819730	6.920810	-0.138460	-76.413423
4.750000	-0.168420	-95.383671	-21.756483	6.173562	-21.756483	6.173562	-0.140506	-77.147987
4.800000	-0.170934	-96.292128	-21.694037	5.429149	-21.694037	5.429149	-0.142575	-77.880768
4.850000	-0.173480	-97.198949	-21.632360	4.687544	-21.632360	4.687544	-0.144667	-78.611772
4.900000	-0.176056	-98.104168	-21.571425	3.948718	-21.571425	3.948718	-0.146783	-79.341006
4.950000	-0.178664	-99.007819	-21.511201	3.212643	-21.511201	3.212643	-0.148924	-80.068479
5.000000	-0.181305	-99.909937	-21.451662	2.479286	-21.451662	2.479286	-0.151090	-80.794198
5.050000	-0.183980	-100.810494	-21.392788	1.748732	-21.392788	1.748732	-0.153283	-81.518097
5.100000	-0.186689	-101.709595	-21.334542	1.020829	-21.334542	1.020829	-0.155503	-82.240261
5.150000	-0.189432	-102.607276	-21.276897	0.295541	-21.276897	0.295541	-0.157749	-82.960699
5.200000	-0.192210	-103.503577	-21.219826	-0.427168	-21.219826	-0.427168	-0.160022	-83.679420
5.250000	-0.195023	-104.398536	-21.163304	-1.147334	-21.163304	-1.147334	-0.162323	-84.396436
5.300000	-0.197873	-105.292193	-21.107306	-1.864996	-21.107306	-1.864996	-0.164652	-85.111755
5.350000	-0.200760	-106.184590	-21.051807	-2.580195	-21.051807	-2.580195	-0.167011	-85.825390
5.400000	-0.203684	-107.075766	-20.996784	-3.292972	-20.996784	-3.292972	-0.169399	-86.537352
5.450000	-0.206647	-107.965765	-20.942211	-4.003371	-20.942211	-4.003371	-0.171817	-87.247651
5.500000	-0.209648	-108.854629	-20.888067	-4.711434	-20.888067	-4.711434	-0.174266	-87.956300
5.550000	-0.212688	-109.742403	-20.834327	-5.417208	-20.834327	-5.417208	-0.176746	-88.663312
5.600000	-0.215769	-110.629130	-20.780971	-6.120741	-20.780971	-6.120741	-0.179257	-89.368698
5.650000	-0.218890	-111.514855	-20.727974	-6.822080	-20.727974	-6.822080	-0.181801	-90.072471
5.700000	-0.222052	-112.399625	-20.675317	-7.521276	-20.675317	-7.521276	-0.184378	-90.774646
5.750000	-0.225257	-113.283486	-20.622977	-8.218381	-20.622977	-8.218381	-0.186989	-91.475235
5.800000	-0.228503	-114.166485	-20.570933	-8.913447	-20.570933	-8.913447	-0.189634	-92.174252
5.850000	-0.231801	-115.048544	-20.519155	-9.606202	-20.519155	-9.606202	-0.192319	-92.871445
5.900000	-0.235143	-115.929807	-20.467630	-10.296947	-20.467630	-10.296947	-0.195041	-93.567028
5.950000	-0.238510	-116.810717	-20.416367	-10.986742	-20.416367	-10.986742	-0.197783	-94.261820
6.000000	-0.241947	-117.690568	-20.365278	-11.673683	-20.365278	-11.673683	-0.200581	-94.954238
6.050000	-0.245400	-118.570221	-20.314449	-12.360034	-20.314449	-12.360034	-0.203393	-95.646140
6.100000	-0.248932	-119.448885	-20.263715	-13.043439	-20.263715	-13.043439	-0.206270	-96.335461
6.150000	-0.252474	-120.327469	-20.213250	-13.726573	-20.213250	-13.726573	-0.209154	-97.024530
6.200000	-0.256105	-121.205175	-20.162793	-14.406725	-20.162793	-14.406725	-0.212112	-97.710823
6.250000	-0.259738	-122.082881	-20.112627	-15.086877	-20.112627	-15.086877	-0.215071	-98.397116
6.300000	-0.263471	-122.959867	-20.062370	-15.764076	-20.062370	-15.764076	-0.218114	-99.080455
6.350000	-0.267206	-123.836853	-20.012403	-16.441275	-20.012403	-16.441275	-0.221157	-99.763794
6.400000	-0.271034	-124.713402	-19.962311	-17.116053	-19.962311	-17.116053	-0.224279	-100.444493
6.450000	-0.274873	-125.589912	-19.912470	-17.790612	-19.912470	-17.790612	-0.227409	-101.124952
6.500000	-0.278800	-126.466234	-19.862487	-18.463243	-19.862487	-18.463243	-0.230613	-101.803076
6.550000	-0.282746	-127.342518	-19.812704	-19.135490	-19.812704	-19.135490	-0.233834	-102.480733
6.600000	-0.286773	-128.218826	-19.762773	-19.806259	-19.762773	-19.806259	-0.237123	-103.156348
6.650000	-0.290829	-129.095143	-19.712985	-20.476535	-19.712985	-20.476535	-0.240436	-103.831282
6.700000	-0.294959	-129.971657	-19.663055	-21.145736	-19.663055	-21.145736	-0.243812	-104.504456
6.750000	-0.299127	-130.848270	-19.613198	-21.814399	-19.613198	-21.814399	-0.247221	-105.176749
6.800000	-0.303362	-131.725215	-19.563220	-22.482336	-19.563220	-22.482336	-0.250687	-105.847551
6.850000	-0.307645	-132.602397	-19.513238	-23.149755	-19.513238	-23.149755	-0.254194	-106.517287
6.900000	-0.311987	-133.480003	-19.463166	-23.816743	-19.463166	-23.816743	-0.257753	-107.185788
6.950000	-0.316389	-134.358032	-19.413005	-24.483300	-19.413005	-24.483300	-0.261362	-107.853053
7.000000	-0.320841	-135.236534	-19.362796	-25.149661	-19.362796	-25.149661	-0.265016	-108.519325
7.050000	-0.325363	-136.115697	-19.312406	-25.815748	-19.312406	-25.815748	-0.268730	-109.184207
7.100000	-0.329927	-136.995337	-19.262020	-26.481814	-19.262020	-26.481814	-0.272481	-109.848324
7.150000	-0.334572	-137.875928	-19.211355	-27.147835	-19.211355	-27.147835	-0.276304	-110.510912
7.200000	-0.339250	-138.756951	-19.160756	-27.813943	-19.160756	-27.813943	-0.280156	-111.172950
7.250000	-0.344022	-139.639270	-19.109774	-28.480310	-19.109774	-28.480310	-0.284090	-111.833337
7.300000	-0.348817	-140.521930	-19.058930	-29.146805	-19.058930	-29.146805	-0.288045	-112.493372
7.350000	-0.353718	-141.406287	-19.007592	-29.813937	-19.007592	-29.813937	-0.292094	-113.151650
7.400000	-0.358632	-142.290841	-18.956472	-30.481168	-18.956472	-30.481168	-0.296154	-113.809760
7.450000	-0.363664	-143.177553	-18.904745	-31.149489	-18.904745	-31.149489	-0.300321	-114.466024
7.500000	-0.368700	-144.064264	-18.853324	-31.817810	-18.853324	-31.817810	-0.304491	-115.122289
7.550000	-0.373867	-144.953655	-18.801178	-32.487749	-18.801178	-32.487749	-0.308780	-115.776636
7.600000	-0.379037	-145.843046	-18.749343	-33.157688	-18.749343	-33.157688	-0.313071	-116.430984
7.650000	-0.384330	-146.735198	-18.696842	-33.829503	-18.696842	-33.829503	-0.317474	-117.083665
7.700000	-0.389638	-147.627601	-18.644568	-34.501488	-18.644568	-34.501488	-0.321891	-117.736195
7.750000	-0.395060	-148.522798	-18.591696	-35.175538	-18.591696	-35.175538	-0.326413	-118.387292
7.800000	-0.400508	-149.418553	-18.538962	-35.850000	-18.538962	-35.850000	-0.330957	-119.038103
7.850000	-0.406062	-150.317086	-18.485706	-36.526640	-18.485706	-36.526640	-0.335600	-119.687702
7.900000	-0.411653	-151.216544	-18.432495	-37.204007	-18.432495	-37.204007	-0.340278	-120.336897
7.950000	-0.417317	-152.118002	-18.379039	-37.883001	-18.379039	-37.883001	-0.345023	-120.985326
8.000000	-0.423063	-153.021786	-18.325264	-38.563916	-18.325264	-38.563916	-0.349844	-121.632916
8.050000	-0.428880	-153.927656	-18.271265	-39.246586	-18.271265	-39.246586	-0.354732	-122.279821
8.100000	-0.434769	-154.835697	-18.217039	-39.931107	-18.217039	-39.931107	-0.359688	-122.926065
8.150000	-0.440730	-155.745997	-18.162586	-40.617572	-18.162586	-40.617572	-0.364712	-123.571672
8.200000	-0.446765	-156.658641	-18.107904	-41.306074	-18.107904	-41.306074	-0.369806	-124.216668
8.250000	-0.452873	-157.573718	-18.052993	-41.996705	-18.052993	-41.996705	-0.374970	-124.861076
8.300000	-0.459056	-158.491317	-17.997854	-42.689557	-17.997854	-42.689557	-0.380205	-125.504922
8.350000	-0.465313	-159.411528	-17.942486	-43.384718	-17.942486	-43.384718	-0.385511	-126.148230
8.400000	-0.471647	-160.334442	-17.886889	-44.082278	-17.886889	-44.082278	-0.390891	-126.791025
8.450000	-0.478056	-161.260151	-17.831066	-44.782324	-17.831066	-44.782324	-0.396345	-127.433334
8.500000	-0.484543	-162.188748	-17.775016	-45.484942	-17.775016	-45.484942	-0.401873	-128.075180
8.550000	-0.491107	-163.120327	-17.718742	-46.190217	-17.718742	-46.190217	-0.407477	-128.716591
8.600000	-0.497750	-164.054983	-17.662244	-46.898233	-17.662244	-46.898233	-0.413158	-129.357591
8.650000	-0.504471	-164.992813	-17.605524	-47.609071	-17.605524	-47.609071	-0.418916	-129.998206
8.700000	-0.511271	-165.933913	-17.548585	-48.322815	-17.548585	-48.322815	-0.424752	-130.638464
8.750000	-0.518152	-166.878381	-17.491428	-49.039542	-17.491428	-49.039542	-0.430668	-131.278388
8.800000	-0.525116	-167.826472	-17.434030	-49.759469	-17.434030	-49.759469	-0.436668	-131.917995
8.850000	-0.532161	-168.778141	-17.376419	-50.482544	-17.376419	-50.482544	-0.442749	-132.557325
8.900000	-0.539288	-169.733487	-17.318598	-51.208843	-17.318598	-51.208843	-0.448913	-133.196405
8.950000	-0.546497	-170.692614	-17.260568	-51.938441	-17.260568	-51.938441	-0.455160	-133.835262
9.000000	-0.553789	-171.655625	-17.202334	-52.671412	-17.202334	-52.671412	-0.461491	-134.473922
9.050000	-0.561164	-172.622623	-17.143896	-53.407830	-17.143896	-53.407830	-0.467908	-135.112413
9.100000	-0.568623	-173.593715	-17.085259	-54.147768	-17.085259	-54.147768	-0.474411	-135.750762
9.150000	-0.576166	-174.569006	-17.026425	-54.891298	-17.026425	-54.891298	-0.481002	-136.388996
9.200000	-0.583794	-175.548603	-16.967397	-55.638491	-16.967397	-55.638491	-0.487681	-137.027144
9.250000	-0.591507	-176.532615	-16.908177	-56.389419	-16.908177	-56.389419	-0.494449	-137.665233
9.300000	-0.599305	-177.521150	-16.848768	-57.144152	-16.848768	-57.144152	-0.501308	-138.303291
9.350000	-0.607189	-178.514319	-16.789174	-57.902760	-16.789174	-57.902760	-0.508258	-138.941347
9.400000	-0.615159	-179.512231	-16.729396	-58.665315	-16.729396	-58.665315	-0.515301	-139.579427
9.450000	-0.623216	179.485000	-16.669438	-59.431887	-16.669438	-59.431887	-0.522437	-140.217562
9.500000	-0.631360	178.477264	-16.609302	-60.202546	-16.609302	-60.202546	-0.529668	-140.855779
9.550000	-0.639590	177.464446	-16.548991	-60.977365	-16.548991	-60.977365	-0.536995	-141.494108
9.600000	-0.647908	176.446433	-16.488508	-61.756415	-16.488508	-61.756415	-0.544418	-142.132577
9.650000	-0.656313	175.423110	-16.427854	-62.539768	-16.427854	-62.539768	-0.551939	-142.771215
9.700000	-0.664806	174.394361	-16.367034	-63.327500	-16.367034	-63.327500	-0.559559	-143.410052
9.750000	-0.673386	173.360071	-16.306048	-64.119683	-16.306048	-64.119683	-0.567279	-144.049117
9.800000	-0.682054	172.320122	-16.244900	-64.916394	-16.244900	-64.916394	-0.575099	-144.688440
9.850000	-0.690810	171.274398	-16.183593	-65.717710	-16.183593	-65.717710	-0.583022	-145.328051
9.900000	-0.699653	170.222781	-16.122128	-66.523711	-16.122128	-66.523711	-0.591048	-145.967979
9.950000	-0.708584	169.165153	-16.060508	-67.334477	-16.060508	-67.334477	-0.599179	-146.608255
10.000000	-0.717601	168.101394	-15.998737	-68.150090	-15.998737	-68.150090	-0.607414	-147.248909
