! freq	dB(S11)	phase(S11)	dB(S12)	phase(S12)	
!     	dB(S21)	phase(S21)	dB(S22)	phase(S22)	
!S-par simulation data
#  GHz  S  DB  R 50
0.000000	-0.000000	0.000000	-340.243240	0.000000	-340.243240	0.000000	-0.000000	0.000000
0.050000	-0.000118	-0.970776	-68.208777	88.515754	-68.208777	88.515754	-0.000100	-0.790816
0.100000	-0.000468	-1.941265	-62.253241	87.298999	-62.253241	87.298999	-0.000397	-1.581391
0.150000	-0.001037	-2.911196	-58.794149	86.329602	-58.794149	86.329602	-0.000877	-2.371502
0.200000	-0.001804	-3.880344	-56.343700	85.486356	-56.343700	85.486356	-0.001523	-3.160963
0.250000	-0.002756	-4.848444	-54.441290	84.691576	-54.441290	84.691576	-0.002321	-3.949567
0.300000	-0.003851	-5.815434	-52.884283	83.905297	-52.884283	83.905297	-0.003234	-4.737277
0.350000	-0.005069	-6.781162	-51.566346	83.115939	-51.566346	83.115939	-0.004244	-5.523984
0.400000	-0.006385	-7.745550	-50.424046	82.319052	-50.424046	82.319052	-0.005330	-6.309646
0.450000	-0.007774	-8.708557	-49.416477	81.514057	-49.416477	81.514057	-0.006470	-7.094249
0.500000	-0.009214	-9.670165	-48.515658	80.701739	-48.515658	80.701739	-0.007646	-7.877802
0.550000	-0.010687	-10.630377	-47.701575	79.883254	-47.701575	79.883254	-0.008844	-8.660326
0.600000	-0.012177	-11.589209	-46.959409	79.059761	-46.959409	79.059761	-0.010051	-9.441854
0.650000	-0.013673	-12.546682	-46.277875	78.232300	-46.277875	78.232300	-0.011259	-10.222419
0.700000	-0.015165	-13.502823	-45.648177	77.401765	-45.648177	77.401765	-0.012462	-11.002055
0.750000	-0.016646	-14.457654	-45.063327	76.568914	-45.063327	76.568914	-0.013653	-11.780795
0.800000	-0.018112	-15.411198	-44.517679	75.734385	-44.517679	75.734385	-0.014832	-12.558666
0.850000	-0.019560	-16.363470	-44.006607	74.898721	-44.006607	74.898721	-0.015995	-13.335689
0.900000	-0.020988	-17.314481	-43.526273	74.062383	-43.526273	74.062383	-0.017143	-14.111882
0.950000	-0.022395	-18.264238	-43.073456	73.225771	-43.073456	73.225771	-0.018275	-14.887256
1.000000	-0.023782	-19.212740	-42.645428	72.389231	-42.645428	72.389231	-0.019392	-15.661817
1.050000	-0.025148	-20.159981	-42.239857	71.553067	-42.239857	71.553067	-0.020495	-16.435566
1.100000	-0.026497	-21.105952	-41.854736	70.717548	-41.854736	70.717548	-0.021585	-17.208502
1.150000	-0.027827	-22.050639	-41.488320	69.882919	-41.488320	69.882919	-0.022663	-17.980618
1.200000	-0.029142	-22.994024	-41.139090	69.049397	-41.139090	69.049397	-0.023730	-18.751906
1.250000	-0.030442	-23.936087	-40.805707	68.217183	-40.805707	68.217183	-0.024788	-19.522354
1.300000	-0.031728	-24.876745	-40.487096	67.386536	-40.487096	67.386536	-0.025837	-20.291911
1.350000	-0.033003	-25.816030	-40.182103	66.557568	-40.182103	66.557568	-0.026879	-21.060598
1.400000	-0.034267	-26.753914	-39.889793	65.730438	-39.889793	65.730438	-0.027915	-21.828399
1.450000	-0.035523	-27.690370	-39.609328	64.905296	-39.609328	64.905296	-0.028946	-22.595297
1.500000	-0.036770	-28.625369	-39.339954	64.082285	-39.339954	64.082285	-0.029973	-23.361273
1.550000	-0.038011	-29.558882	-39.080990	63.261541	-39.080990	63.261541	-0.030996	-24.126309
1.600000	-0.039246	-30.490877	-38.831820	62.443193	-38.831820	62.443193	-0.032016	-24.890385
1.650000	-0.040476	-31.421327	-38.591885	61.627366	-38.591885	61.627366	-0.033033	-25.653482
1.700000	-0.041702	-32.350199	-38.360671	60.814181	-38.360671	60.814181	-0.034049	-26.415582
1.750000	-0.042925	-33.277466	-38.137712	60.003754	-38.137712	60.003754	-0.035063	-27.176663
1.800000	-0.044146	-34.203096	-37.922578	59.196199	-37.922578	59.196199	-0.036077	-27.936708
1.850000	-0.045364	-35.127062	-37.714876	58.391625	-37.714876	58.391625	-0.037090	-28.695697
1.900000	-0.046581	-36.049334	-37.514241	57.590141	-37.514241	57.590141	-0.038103	-29.453610
1.950000	-0.047797	-36.969884	-37.320337	56.791851	-37.320337	56.791851	-0.039116	-30.210429
2.000000	-0.049012	-37.888685	-37.132852	55.996858	-37.132852	55.996858	-0.040130	-30.966135
2.050000	-0.050228	-38.805709	-36.951496	55.205263	-36.951496	55.205263	-0.041145	-31.720711
2.100000	-0.051445	-39.720931	-36.776001	54.417165	-36.776001	54.417165	-0.042160	-32.474137
2.150000	-0.052662	-40.634326	-36.606115	53.632661	-36.606115	53.632661	-0.043178	-33.226396
2.200000	-0.053881	-41.545867	-36.441604	52.851846	-36.441604	52.851846	-0.044196	-33.977471
2.250000	-0.055101	-42.455532	-36.282248	52.074815	-36.282248	52.074815	-0.045217	-34.727344
2.300000	-0.056324	-43.363298	-36.127841	51.301661	-36.127841	51.301661	-0.046240	-35.475999
2.350000	-0.057549	-44.269140	-35.978189	50.532474	-35.978189	50.532474	-0.047266	-36.223419
2.400000	-0.058777	-45.173039	-35.833111	49.767345	-35.833111	49.767345	-0.048294	-36.969588
2.450000	-0.060008	-46.074974	-35.692433	49.006363	-35.692433	49.006363	-0.049325	-37.714491
2.500000	-0.061243	-46.974923	-35.555995	48.249615	-35.555995	48.249615	-0.050360	-38.458111
2.550000	-0.062482	-47.872780	-35.423729	47.497379	-35.423729	47.497379	-0.051398	-39.200378
2.600000	-0.063725	-48.768613	-35.295402	46.749557	-35.295402	46.749557	-0.052440	-39.941332
2.650000	-0.064973	-49.662404	-35.170875	46.006233	-35.170875	46.006233	-0.053486	-40.680958
2.700000	-0.066226	-50.554137	-35.050017	45.267490	-35.050017	45.267490	-0.054536	-41.419244
2.750000	-0.067485	-51.443796	-34.932705	44.533409	-34.932705	44.533409	-0.055591	-42.156174
2.800000	-0.068750	-52.331365	-34.818818	43.804073	-34.818818	43.804073	-0.056651	-42.891737
2.850000	-0.070021	-53.216830	-34.708244	43.079560	-34.708244	43.079560	-0.057717	-43.625920
2.900000	-0.071298	-54.100178	-34.600874	42.359950	-34.600874	42.359950	-0.058788	-44.358709
2.950000	-0.072583	-54.981396	-34.496605	41.645320	-34.496605	41.645320	-0.059864	-45.090093
3.000000	-0.073875	-55.860472	-34.395338	40.935748	-34.395338	40.935748	-0.060947	-45.820060
3.050000	-0.075176	-56.737395	-34.296976	40.231309	-34.296976	40.231309	-0.062037	-46.548599
3.100000	-0.076484	-57.612155	-34.201430	39.532078	-34.201430	39.532078	-0.063133	-47.275698
3.150000	-0.077802	-58.484741	-34.108610	38.838128	-34.108610	38.838128	-0.064237	-48.001348
3.200000	-0.079129	-59.355146	-34.018432	38.149534	-34.018432	38.149534	-0.065348	-48.725538
3.250000	-0.080465	-60.223360	-33.930815	37.466365	-33.930815	37.466365	-0.066467	-49.448258
3.300000	-0.081812	-61.089378	-33.845680	36.788694	-33.845680	36.788694	-0.067595	-50.169498
3.350000	-0.083169	-61.953191	-33.762950	36.116588	-33.762950	36.116588	-0.068730	-50.889249
3.400000	-0.084537	-62.814795	-33.682552	35.450118	-33.682552	35.450118	-0.069875	-51.607504
3.450000	-0.085917	-63.674184	-33.604414	34.789349	-33.604414	34.789349	-0.071029	-52.324252
3.500000	-0.087308	-64.531354	-33.528468	34.134349	-33.528468	34.134349	-0.072193	-53.039486
3.550000	-0.088712	-65.386302	-33.454646	33.485182	-33.454646	33.485182	-0.073367	-53.753199
3.600000	-0.090129	-66.239024	-33.382883	32.841912	-33.382883	32.841912	-0.074551	-54.465384
3.650000	-0.091560	-67.089518	-33.313115	32.204602	-33.313115	32.204602	-0.075746	-55.176032
3.700000	-0.093004	-67.937783	-33.245280	31.573312	-33.245280	31.573312	-0.076952	-55.885138
3.750000	-0.094462	-68.783819	-33.179319	30.948103	-33.179319	30.948103	-0.078170	-56.592696
3.800000	-0.095936	-69.627528	-33.115227	30.329304	-33.115227	30.329304	-0.079400	-57.298631
3.850000	-0.097426	-70.469008	-33.052890	29.716706	-33.052890	29.716706	-0.080642	-58.003006
3.900000	-0.098931	-71.308260	-32.992250	29.110366	-32.992250	29.110366	-0.081897	-58.705816
3.950000	-0.100452	-72.145287	-32.933252	28.510338	-32.933252	28.510338	-0.083165	-59.407056
4.000000	-0.101990	-72.980092	-32.875842	27.916674	-32.875842	27.916674	-0.084447	-60.106721
4.050000	-0.103546	-73.812677	-32.819967	27.329425	-32.819967	27.329425	-0.085742	-60.804808
4.100000	-0.105119	-74.643048	-32.765575	26.748641	-32.765575	26.748641	-0.087052	-61.501314
4.150000	-0.106710	-75.471208	-32.712614	26.174369	-32.712614	26.174369	-0.088376	-62.196234
4.200000	-0.108320	-76.297163	-32.661035	25.606655	-32.661035	25.606655	-0.089715	-62.889566
4.250000	-0.109949	-77.120920	-32.610786	25.045543	-32.610786	25.045543	-0.091070	-63.581308
4.300000	-0.111598	-77.942484	-32.561820	24.491075	-32.561820	24.491075	-0.092441	-64.271457
4.350000	-0.113267	-78.761864	-32.514087	23.943291	-32.514087	23.943291	-0.093827	-64.960012
4.400000	-0.114956	-79.579066	-32.467540	23.402227	-32.467540	23.402227	-0.095231	-65.646971
4.450000	-0.116667	-80.394101	-32.422132	22.867920	-32.422132	22.867920	-0.096651	-66.332333
4.500000	-0.118399	-81.206975	-32.377816	22.340403	-32.377816	22.340403	-0.098088	-67.016097
4.550000	-0.120152	-82.017701	-32.334546	21.819705	-32.334546	21.819705	-0.099543	-67.698262
4.600000	-0.121933	-82.825918	-32.292402	21.307053	-32.292402	21.307053	-0.101020	-68.378552
4.650000	-0.123737	-83.631914	-32.251243	20.801574	-32.251243	20.801574	-0.102516	-69.057174
4.700000	-0.125554	-84.436810	-32.210637	20.299699	-32.210637	20.299699	-0.104022	-69.734962
4.750000	-0.127408	-85.238407	-32.171291	19.808639	-32.171291	19.808639	-0.105558	-70.410252
4.800000	-0.129270	-86.039280	-32.132335	19.319993	-32.132335	19.319993	-0.107101	-71.084987
4.850000	-0.131175	-86.836533	-32.094612	18.843417	-32.094612	18.843417	-0.108679	-71.756950
4.900000	-0.133085	-87.633429	-32.057143	18.368051	-32.057143	18.368051	-0.110261	-72.428637
4.950000	-0.135044	-88.426398	-32.020851	17.905991	-32.020851	17.905991	-0.111882	-73.097282
5.000000	-0.137003	-89.219367	-31.984710	17.443931	-31.984710	17.443931	-0.113504	-73.765927
5.050000	-0.139017	-90.008117	-31.949660	16.996384	-31.949660	16.996384	-0.115170	-74.431267
5.100000	-0.141031	-90.796867	-31.914751	16.548837	-31.914751	16.548837	-0.116837	-75.096607
5.150000	-0.143097	-91.581812	-31.880691	16.114556	-31.880691	16.114556	-0.118547	-75.758929
5.200000	-0.145169	-92.366412	-31.846829	15.681481	-31.846829	15.681481	-0.120261	-76.420977
5.250000	-0.147289	-93.147615	-31.813602	15.260395	-31.813602	15.260395	-0.122015	-77.080297
5.300000	-0.149420	-93.928139	-31.780602	14.841707	-31.780602	14.841707	-0.123777	-77.739072
5.350000	-0.151596	-94.705664	-31.748051	14.433712	-31.748051	14.433712	-0.125577	-78.395406
5.400000	-0.153788	-95.482189	-31.715729	14.029282	-31.715729	14.029282	-0.127389	-79.050926
5.450000	-0.156021	-96.256103	-31.683700	13.634235	-31.683700	13.634235	-0.129237	-79.704292
5.500000	-0.158275	-97.028712	-31.651874	13.243881	-31.651874	13.243881	-0.131101	-80.356582
5.550000	-0.160567	-97.799086	-31.620212	12.861601	-31.620212	12.861601	-0.132997	-81.007001
5.600000	-0.162887	-98.567864	-31.588701	12.485088	-31.588701	12.485088	-0.134915	-81.656084
5.650000	-0.165239	-99.334772	-31.557258	12.115349	-31.557258	12.115349	-0.136861	-82.303579
5.700000	-0.167624	-100.099809	-31.525882	11.752386	-31.525882	11.752386	-0.138835	-82.949484
5.750000	-0.170038	-100.863327	-31.494507	11.394920	-31.494507	11.394920	-0.140832	-83.594078
5.800000	-0.172491	-101.624717	-31.463089	11.045151	-31.463089	11.045151	-0.142863	-84.236835
5.850000	-0.174968	-102.384924	-31.431637	10.699641	-31.431637	10.699641	-0.144913	-84.878554
5.900000	-0.177492	-103.142764	-31.400004	10.362650	-31.400004	10.362650	-0.147003	-85.518196
5.950000	-0.180033	-103.899741	-31.368331	10.028731	-31.368331	10.028731	-0.149107	-86.157068
6.000000	-0.182628	-104.654131	-31.336312	9.704030	-31.336312	9.704030	-0.151257	-86.793630
6.050000	-0.185235	-105.407963	-31.304279	9.381285	-31.304279	9.381285	-0.153417	-87.429684
6.100000	-0.187903	-106.159007	-31.271709	9.068321	-31.271709	9.068321	-0.155629	-88.063202
6.150000	-0.190578	-106.909780	-31.239181	8.756283	-31.239181	8.756283	-0.157846	-88.696470
6.200000	-0.193321	-107.657585	-31.205899	8.454431	-31.205899	8.454431	-0.160122	-89.326984
6.250000	-0.196064	-108.405389	-31.172745	8.152579	-31.172745	8.152579	-0.162397	-89.957499
6.300000	-0.198883	-109.150064	-31.138599	7.861144	-31.138599	7.861144	-0.164738	-90.585050
6.350000	-0.201703	-109.894740	-31.104587	7.569708	-31.104587	7.569708	-0.167079	-91.212602
6.400000	-0.204593	-110.636650	-31.069539	7.287121	-31.069539	7.287121	-0.169481	-91.837478
6.450000	-0.207491	-111.378309	-31.034526	7.005338	-31.034526	7.005338	-0.171889	-92.462110
6.500000	-0.210455	-112.117552	-30.998464	6.730906	-30.998464	6.730906	-0.174353	-93.084347
6.550000	-0.213432	-112.856311	-30.962314	6.457944	-30.962314	6.457944	-0.176830	-93.706106
6.600000	-0.216469	-113.592984	-30.925137	6.190927	-30.925137	6.190927	-0.179358	-94.325744
6.650000	-0.219528	-114.328962	-30.887727	5.925892	-30.887727	5.925892	-0.181905	-94.944676
6.700000	-0.222640	-115.063167	-30.849342	5.665506	-30.849342	5.665506	-0.184499	-95.561757
6.750000	-0.225781	-115.796485	-30.810560	5.407445	-30.810560	5.407445	-0.187117	-96.177912
6.800000	-0.228971	-116.528325	-30.770883	5.152867	-30.770883	5.152867	-0.189778	-96.792476
6.850000	-0.232195	-117.259108	-30.730629	4.900776	-30.730629	4.900776	-0.192469	-97.405905
6.900000	-0.235463	-117.988687	-30.689590	4.651147	-30.689590	4.651147	-0.195198	-98.017996
6.950000	-0.238773	-118.717061	-30.647778	4.403980	-30.647778	4.403980	-0.197964	-98.628751
7.000000	-0.242119	-119.444487	-30.605316	4.158414	-30.605316	4.158414	-0.200762	-99.238415
7.050000	-0.245515	-120.170582	-30.561875	3.915090	-30.561875	3.915090	-0.203605	-99.846551
7.100000	-0.248942	-120.895963	-30.517942	3.672678	-30.517942	3.672678	-0.206474	-100.453833
7.150000	-0.252427	-121.619912	-30.472818	3.432093	-30.472818	3.432093	-0.209394	-101.059406
7.200000	-0.255934	-122.343358	-30.427377	3.191914	-30.427377	3.191914	-0.212335	-101.664354
7.250000	-0.259508	-123.065295	-30.380532	2.952953	-30.380532	2.952953	-0.215334	-102.267422
7.300000	-0.263099	-123.786919	-30.333561	2.714077	-30.333561	2.714077	-0.218348	-102.870083
7.350000	-0.266763	-124.506981	-30.284971	2.475628	-30.284971	2.475628	-0.221428	-103.470705
7.400000	-0.270437	-125.226898	-30.236460	2.237129	-30.236460	2.237129	-0.224517	-104.071129
7.450000	-0.274193	-125.945224	-30.186120	1.998092	-30.186120	1.998092	-0.227679	-104.669367
7.500000	-0.277952	-126.663550	-30.136071	1.759055	-30.136071	1.759055	-0.230843	-105.267606
7.550000	-0.281801	-127.380281	-30.083992	1.518360	-30.083992	1.518360	-0.234090	-105.863521
7.600000	-0.285653	-128.097013	-30.032224	1.277664	-30.032224	1.277664	-0.237337	-106.459437
7.650000	-0.289589	-128.812415	-29.978628	1.034503	-29.978628	1.034503	-0.240662	-107.053283
7.700000	-0.293535	-129.527697	-29.925169	0.791119	-29.925169	0.791119	-0.243995	-107.646941
7.750000	-0.297559	-130.241893	-29.870097	0.544678	-29.870097	0.544678	-0.247399	-108.238771
7.800000	-0.301600	-130.955871	-29.814987	0.297626	-29.814987	0.297626	-0.250818	-108.830236
7.850000	-0.305712	-131.668983	-29.758491	0.047139	-29.758491	0.047139	-0.254302	-109.420106
7.900000	-0.309850	-132.381807	-29.701787	-0.204493	-29.701787	-0.204493	-0.257809	-110.009445
7.950000	-0.314052	-133.093962	-29.643928	-0.459738	-29.643928	-0.459738	-0.261376	-110.597412
8.000000	-0.318287	-133.805782	-29.585696	-0.716789	-29.585696	-0.716789	-0.264972	-111.184693
8.050000	-0.322579	-134.517106	-29.526544	-0.977441	-29.526544	-0.977441	-0.268621	-111.770814
8.100000	-0.326913	-135.228077	-29.466863	-1.240667	-29.466863	-1.240667	-0.272308	-112.356107
8.150000	-0.331296	-135.938700	-29.406493	-1.507312	-29.406493	-1.507312	-0.276041	-112.940441
8.200000	-0.335729	-136.648977	-29.345451	-1.777377	-29.345451	-1.777377	-0.279819	-113.523817
8.250000	-0.340204	-137.359030	-29.283945	-2.050530	-29.283945	-2.050530	-0.283637	-114.106424
8.300000	-0.344737	-138.068771	-29.221635	-2.328004	-29.221635	-2.328004	-0.287509	-114.687954
8.350000	-0.349305	-138.778387	-29.159079	-2.608105	-29.159079	-2.608105	-0.291412	-115.268895
8.400000	-0.353940	-139.487753	-29.095602	-2.893460	-29.095602	-2.893460	-0.295378	-115.848655
8.450000	-0.358601	-140.197066	-29.032085	-3.180878	-29.032085	-3.180878	-0.299369	-116.427990
8.500000	-0.363337	-140.906220	-28.967542	-3.474484	-28.967542	-3.474484	-0.303430	-117.006054
8.550000	-0.368092	-141.615367	-28.903154	-3.769510	-28.903154	-3.769510	-0.307508	-117.583848
8.600000	-0.372931	-142.324475	-28.837649	-4.071639	-28.837649	-4.071639	-0.311666	-118.160292
8.650000	-0.377781	-143.033593	-28.772481	-4.374492	-28.772481	-4.374492	-0.315833	-118.736608
8.700000	-0.382722	-143.742823	-28.706118	-4.685318	-28.706118	-4.685318	-0.320088	-119.311511
8.750000	-0.387667	-144.452053	-28.640257	-4.996144	-28.640257	-4.996144	-0.324345	-119.886413
8.800000	-0.392712	-145.161575	-28.573136	-5.315748	-28.573136	-5.315748	-0.328699	-120.459853
8.850000	-0.397761	-145.871098	-28.506529	-5.635353	-28.506529	-5.635353	-0.333055	-121.033293
8.900000	-0.402902	-146.581047	-28.438887	-5.962997	-28.438887	-5.962997	-0.337500	-121.605466
8.950000	-0.408055	-147.291035	-28.371629	-6.291373	-28.371629	-6.291373	-0.341955	-122.177524
9.000000	-0.413292	-148.001558	-28.303546	-6.626986	-28.303546	-6.626986	-0.346492	-122.748498
9.050000	-0.418549	-148.712188	-28.235725	-6.964045	-28.235725	-6.964045	-0.351048	-123.319256
9.100000	-0.423883	-149.423432	-28.167272	-7.307496	-28.167272	-7.307496	-0.355678	-123.889100
9.150000	-0.429245	-150.134882	-28.098972	-7.653078	-28.098972	-7.653078	-0.360335	-124.458641
9.200000	-0.434675	-150.846999	-28.030217	-8.004189	-28.030217	-8.004189	-0.365060	-125.027427
9.250000	-0.440142	-151.559450	-27.961511	-8.358066	-27.961511	-8.358066	-0.369819	-125.595836
9.300000	-0.445669	-152.272592	-27.892512	-8.716615	-27.892512	-8.716615	-0.374637	-126.163634
9.350000	-0.451240	-152.986227	-27.823466	-9.078501	-27.823466	-9.078501	-0.379499	-126.730997
9.400000	-0.456864	-153.700549	-27.754274	-9.444227	-27.754274	-9.444227	-0.384413	-127.297880
9.450000	-0.462540	-154.415557	-27.684943	-9.813792	-27.684943	-9.813792	-0.389378	-127.864284
9.500000	-0.468261	-155.131215	-27.615602	-10.186401	-27.615602	-10.186401	-0.394387	-128.430326
9.550000	-0.474041	-155.847784	-27.546032	-10.563272	-27.546032	-10.563272	-0.399457	-128.995861
9.600000	-0.479858	-156.564938	-27.476577	-10.942445	-27.476577	-10.942445	-0.404562	-129.561136
9.650000	-0.485743	-157.283261	-27.406802	-11.326221	-27.406802	-11.326221	-0.409736	-130.125893
9.700000	-0.491656	-158.002072	-27.337259	-11.711617	-27.337259	-11.711617	-0.414937	-130.690478
9.750000	-0.497644	-158.722345	-27.267304	-12.101874	-27.267304	-12.101874	-0.420216	-131.254548
9.800000	-0.503652	-159.442976	-27.197693	-12.493139	-27.197693	-12.493139	-0.425515	-131.818519
9.850000	-0.509744	-160.165397	-27.127569	-12.889440	-27.127569	-12.889440	-0.430899	-132.381996
9.900000	-0.515847	-160.888014	-27.057899	-13.286208	-27.057899	-13.286208	-0.436295	-132.945433
9.950000	-0.522041	-161.612786	-26.987609	-13.688111	-26.987609	-13.688111	-0.441785	-133.508413
10.000000	-0.528239	-162.337557	-26.917883	-14.090013	-26.917883	-14.090013	-0.447278	-134.071394
