! freq	dB(S11)	phase(S11)	dB(S12)	phase(S12)	
!     	dB(S21)	phase(S21)	dB(S22)	phase(S22)	
!S-par simulation data
#  GHz  S  DB  R 50
0.000000	-0.000000	0.000000	-318.908057	0.000000	-318.908057	0.000000	-0.000000	0.000000
0.050000	-0.000110	-0.885332	-63.686021	88.988169	-63.686021	88.988169	-0.000120	-0.978592
0.100000	-0.000436	-1.770401	-57.670500	87.981570	-57.670500	87.981570	-0.000475	-1.956896
0.150000	-0.000966	-2.654964	-54.156618	86.984433	-54.156618	86.984433	-0.001054	-2.934640
0.200000	-0.001681	-3.538816	-51.667974	85.999299	-51.667974	85.999299	-0.001833	-3.911597
0.250000	-0.002567	-4.421722	-49.741882	85.028075	-49.741882	85.028075	-0.002802	-4.887502
0.300000	-0.003584	-5.303632	-48.171170	84.069228	-48.171170	84.069228	-0.003917	-5.862291
0.350000	-0.004716	-6.184413	-46.845816	83.122185	-46.845816	83.122185	-0.005158	-6.835811
0.400000	-0.005937	-7.064006	-45.699927	82.185378	-45.699927	82.185378	-0.006500	-7.807984
0.450000	-0.007225	-7.942381	-44.691005	81.257112	-44.691005	81.257112	-0.007918	-8.778767
0.500000	-0.008559	-8.819533	-43.790062	80.335788	-43.790062	80.335788	-0.009391	-9.748143
0.550000	-0.009925	-9.695473	-42.976459	79.420007	-42.976459	79.420007	-0.010898	-10.716114
0.600000	-0.011306	-10.570225	-42.234987	78.508615	-42.234987	78.508615	-0.012426	-11.682696
0.650000	-0.012693	-11.443817	-41.554125	77.600699	-41.554125	77.600699	-0.013961	-12.647911
0.700000	-0.014078	-12.316278	-40.924939	76.695560	-40.924939	76.695560	-0.015494	-13.611784
0.750000	-0.015455	-13.187638	-40.340361	75.792678	-40.340361	75.792678	-0.017019	-14.574342
0.800000	-0.016819	-14.057921	-39.794702	74.891679	-39.794702	74.891679	-0.018530	-15.535604
0.850000	-0.018169	-14.927148	-39.283317	73.992307	-39.283317	73.992307	-0.020024	-16.495589
0.900000	-0.019502	-15.795333	-38.802362	73.094392	-38.802362	73.094392	-0.021500	-17.454308
0.950000	-0.020819	-16.662485	-38.348620	72.197833	-38.348620	72.197833	-0.022957	-18.411767
1.000000	-0.022120	-17.528610	-37.919370	71.302580	-37.919370	71.302580	-0.024395	-19.367967
1.050000	-0.023406	-18.393705	-37.512290	70.408621	-37.512290	70.408621	-0.025815	-20.322903
1.100000	-0.024677	-19.257766	-37.125382	69.515973	-37.125382	69.515973	-0.027217	-21.276566
1.150000	-0.025936	-20.120783	-36.756915	68.624675	-36.756915	68.624675	-0.028604	-22.228943
1.200000	-0.027182	-20.982745	-36.405376	67.734777	-36.405376	67.734777	-0.029975	-23.180015
1.250000	-0.028418	-21.843635	-36.069439	66.846345	-36.069439	66.846345	-0.031334	-24.129764
1.300000	-0.029644	-22.703388	-35.748018	65.959520	-35.748018	65.959520	-0.032681	-25.078106
1.350000	-0.030863	-23.562031	-35.439985	65.074314	-35.439985	65.074314	-0.034017	-26.025075
1.400000	-0.032075	-24.419541	-35.144413	64.190809	-35.144413	64.190809	-0.035345	-26.970642
1.450000	-0.033281	-25.275898	-34.860470	63.309087	-34.860470	63.309087	-0.036665	-27.914781
1.500000	-0.034482	-26.131077	-34.587408	62.429230	-34.587408	62.429230	-0.037979	-28.857463
1.550000	-0.035680	-26.985054	-34.324552	61.551322	-34.324552	61.551322	-0.039287	-29.798658
1.600000	-0.036875	-27.837807	-34.071290	60.675445	-34.071290	60.675445	-0.040591	-30.738337
1.650000	-0.038067	-28.689309	-33.827066	59.801683	-33.827066	59.801683	-0.041891	-31.676470
1.700000	-0.039258	-29.539536	-33.591372	58.930117	-33.591372	58.930117	-0.043189	-32.613027
1.750000	-0.040448	-30.388465	-33.363743	58.060826	-33.363743	58.060826	-0.044485	-33.547979
1.800000	-0.041638	-31.236070	-33.143754	57.193891	-33.143754	57.193891	-0.045780	-34.481297
1.850000	-0.042827	-32.082328	-32.931012	56.329389	-32.931012	56.329389	-0.047073	-35.412951
1.900000	-0.044017	-32.927215	-32.725155	55.467397	-32.725155	55.467397	-0.048367	-36.342914
1.950000	-0.045208	-33.770707	-32.525851	54.607989	-32.525851	54.607989	-0.049661	-37.271157
2.000000	-0.046400	-34.612781	-32.332788	53.751238	-32.332788	53.751238	-0.050956	-38.197653
2.050000	-0.047594	-35.453415	-32.145679	52.897217	-32.145679	52.897217	-0.052251	-39.122376
2.100000	-0.048789	-36.292587	-31.964257	52.045995	-31.964257	52.045995	-0.053549	-40.045300
2.150000	-0.049987	-37.130274	-31.788271	51.197642	-31.788271	51.197642	-0.054848	-40.966401
2.200000	-0.051187	-37.966457	-31.617489	50.352224	-31.617489	50.352224	-0.056150	-41.885653
2.250000	-0.052389	-38.801114	-31.451693	49.509808	-31.451693	49.509808	-0.057454	-42.803033
2.300000	-0.053595	-39.634225	-31.290677	48.670456	-31.290677	48.670456	-0.058761	-43.718519
2.350000	-0.054804	-40.465772	-31.134249	47.834233	-31.134249	47.834233	-0.060072	-44.632088
2.400000	-0.056016	-41.295734	-30.982228	47.001198	-30.982228	47.001198	-0.061386	-45.543720
2.450000	-0.057232	-42.124094	-30.834444	46.171412	-30.834444	46.171412	-0.062704	-46.453395
2.500000	-0.058452	-42.950834	-30.690736	45.344933	-30.690736	45.344933	-0.064026	-47.361092
2.550000	-0.059677	-43.775865	-30.551021	44.521965	-30.551021	44.521965	-0.065353	-48.266706
2.600000	-0.060906	-44.599241	-30.415084	43.702420	-30.415084	43.702420	-0.066685	-49.170306
2.650000	-0.062140	-45.420946	-30.282788	42.886351	-30.282788	42.886351	-0.068022	-50.071874
2.700000	-0.063379	-46.240964	-30.154003	42.073810	-30.154003	42.073810	-0.069364	-50.971395
2.750000	-0.064623	-47.059281	-30.028607	41.264848	-30.028607	41.264848	-0.070713	-51.868853
2.800000	-0.065873	-47.875883	-29.906482	40.459513	-29.906482	40.459513	-0.072067	-52.764234
2.850000	-0.067129	-48.690756	-29.787517	39.657852	-29.787517	39.657852	-0.073428	-53.657525
2.900000	-0.068392	-49.503886	-29.671604	38.859913	-29.671604	38.859913	-0.074796	-54.548713
2.950000	-0.069661	-50.315262	-29.558642	38.065738	-29.558642	38.065738	-0.076171	-55.437786
3.000000	-0.070937	-51.124872	-29.448533	37.275372	-29.448533	37.275372	-0.077554	-56.324734
3.050000	-0.072220	-51.932704	-29.341184	36.488855	-29.341184	36.488855	-0.078945	-57.209546
3.100000	-0.073511	-52.738747	-29.236507	35.706229	-29.236507	35.706229	-0.080344	-58.092213
3.150000	-0.074810	-53.542992	-29.134414	34.927531	-29.134414	34.927531	-0.081752	-58.972726
3.200000	-0.076117	-54.345428	-29.034824	34.152799	-29.034824	34.152799	-0.083170	-59.851078
3.250000	-0.077433	-55.146047	-28.937658	33.382069	-28.937658	33.382069	-0.084597	-60.727261
3.300000	-0.078758	-55.944840	-28.842838	32.615374	-28.842838	32.615374	-0.086034	-61.601269
3.350000	-0.080093	-56.741799	-28.750293	31.852748	-28.750293	31.852748	-0.087481	-62.473098
3.400000	-0.081437	-57.536916	-28.659951	31.094223	-28.659951	31.094223	-0.088940	-63.342741
3.450000	-0.082792	-58.330186	-28.571744	30.339827	-28.571744	30.339827	-0.090409	-64.210196
3.500000	-0.084157	-59.121600	-28.485605	29.589591	-28.485605	29.589591	-0.091891	-65.075459
3.550000	-0.085533	-59.911155	-28.401472	28.843540	-28.401472	28.843540	-0.093385	-65.938528
3.600000	-0.086921	-60.698844	-28.319283	28.101700	-28.319283	28.101700	-0.094891	-66.799402
3.650000	-0.088320	-61.484662	-28.238977	27.364096	-28.238977	27.364096	-0.096411	-67.658078
3.700000	-0.089732	-62.268606	-28.160497	26.630750	-28.160497	26.630750	-0.097944	-68.514558
3.750000	-0.091156	-63.050673	-28.083787	25.901684	-28.083787	25.901684	-0.099491	-69.368841
3.800000	-0.092594	-63.830776	-28.008837	25.177105	-28.008837	25.177105	-0.101054	-70.220834
3.850000	-0.094046	-64.608995	-27.935547	24.456846	-27.935547	24.456846	-0.102631	-71.070634
3.900000	-0.095511	-65.385328	-27.863866	23.740922	-27.863866	23.740922	-0.104224	-71.918244
3.950000	-0.096991	-66.159774	-27.793743	23.029350	-27.793743	23.029350	-0.105833	-72.763667
4.000000	-0.098485	-66.932332	-27.725131	22.322144	-27.725131	22.322144	-0.107459	-73.606908
4.050000	-0.099995	-67.703001	-27.657981	21.619314	-27.657981	21.619314	-0.109101	-74.447971
4.100000	-0.101521	-68.471782	-27.592248	20.920873	-27.592248	20.920873	-0.110761	-75.286863
4.150000	-0.103062	-69.238674	-27.527885	20.226831	-27.527885	20.226831	-0.112439	-76.123588
4.200000	-0.104621	-70.003680	-27.464851	19.537194	-27.464851	19.537194	-0.114135	-76.958154
4.250000	-0.106196	-70.766800	-27.403100	18.851969	-27.403100	18.851969	-0.115850	-77.790569
4.300000	-0.107788	-71.528036	-27.342592	18.171161	-27.342592	18.171161	-0.117585	-78.620840
4.350000	-0.109399	-72.287392	-27.283284	17.494775	-27.283284	17.494775	-0.119339	-79.448977
4.400000	-0.111028	-73.044870	-27.225138	16.822811	-27.225138	16.822811	-0.121114	-80.274988
4.450000	-0.112675	-73.800473	-27.168114	16.155270	-27.168114	16.155270	-0.122910	-81.098884
4.500000	-0.114342	-74.554206	-27.112173	15.492152	-27.112173	15.492152	-0.124726	-81.920675
4.550000	-0.116028	-75.306074	-27.057277	14.833453	-27.057277	14.833453	-0.126565	-82.740373
4.600000	-0.117735	-76.056080	-27.003389	14.179170	-27.003389	14.179170	-0.128426	-83.557989
4.650000	-0.119462	-76.804230	-26.950474	13.529296	-26.950474	13.529296	-0.130310	-84.373535
4.700000	-0.121210	-77.550530	-26.898495	12.883824	-26.898495	12.883824	-0.132217	-85.187026
4.750000	-0.122979	-78.294987	-26.847418	12.242746	-26.847418	12.242746	-0.134147	-85.998473
4.800000	-0.124770	-79.037607	-26.797209	11.606051	-26.797209	11.606051	-0.136102	-86.807891
4.850000	-0.126584	-79.778396	-26.747832	10.973726	-26.747832	10.973726	-0.138081	-87.615296
4.900000	-0.128420	-80.517363	-26.699256	10.345757	-26.699256	10.345757	-0.140086	-88.420701
4.950000	-0.130280	-81.254516	-26.651447	9.722130	-26.651447	9.722130	-0.142116	-89.224124
5.000000	-0.132163	-81.989863	-26.604374	9.102826	-26.604374	9.102826	-0.144173	-90.025579
5.050000	-0.134084	-82.722402	-26.558246	8.490246	-26.558246	8.490246	-0.146270	-90.823993
5.100000	-0.136006	-83.454941	-26.512362	7.877666	-26.512362	7.877666	-0.148369	-91.622406
5.150000	-0.137975	-84.184080	-26.467483	7.273230	-26.467483	7.273230	-0.150519	-92.417161
5.200000	-0.139948	-84.912911	-26.422905	6.669534	-26.422905	6.669534	-0.152675	-93.211584
5.250000	-0.141967	-85.638688	-26.379164	6.073146	-26.379164	6.073146	-0.154880	-94.002748
5.300000	-0.143995	-86.363855	-26.335763	5.478220	-26.335763	5.478220	-0.157096	-94.793261
5.350000	-0.146065	-87.086310	-26.293051	4.889773	-26.293051	4.889773	-0.159357	-95.580906
5.400000	-0.148149	-87.807862	-26.250704	4.303486	-26.250704	4.303486	-0.161634	-96.367594
5.450000	-0.150271	-88.527037	-26.208914	3.722859	-26.208914	3.722859	-0.163952	-97.151794
5.500000	-0.152413	-89.245025	-26.167499	3.145060	-26.167499	3.145060	-0.166293	-97.934749
5.550000	-0.154590	-89.960966	-26.126530	2.572115	-26.126530	2.572115	-0.168671	-98.715580
5.600000	-0.156792	-90.675445	-26.085929	2.002636	-26.085929	2.002636	-0.171077	-99.494895
5.650000	-0.159025	-91.388199	-26.045680	1.437222	-26.045680	1.437222	-0.173516	-100.272440
5.700000	-0.161289	-92.099228	-26.005777	0.875873	-26.005777	0.875873	-0.175989	-101.048214
5.750000	-0.163580	-92.808845	-25.966151	0.317823	-25.966151	0.317823	-0.178491	-101.822554
5.800000	-0.165908	-93.516485	-25.926835	-0.235607	-25.926835	-0.235607	-0.181033	-102.594889
5.850000	-0.168257	-94.223017	-25.887738	-0.786477	-25.887738	-0.786477	-0.183600	-103.366112
5.900000	-0.170651	-94.927333	-25.848898	-1.332222	-25.848898	-1.332222	-0.186213	-104.135113
5.950000	-0.173062	-95.630834	-25.810238	-1.876111	-25.810238	-1.876111	-0.188845	-104.903308
6.000000	-0.175523	-96.331892	-25.771768	-2.414428	-25.771768	-2.414428	-0.191532	-105.669085
6.050000	-0.177996	-97.032420	-25.733456	-2.951554	-25.733456	-2.951554	-0.194232	-106.434343
6.100000	-0.180526	-97.730292	-25.695252	-3.482723	-25.695252	-3.482723	-0.196993	-107.197010
6.150000	-0.183063	-98.427904	-25.657202	-4.013322	-25.657202	-4.013322	-0.199762	-107.959427
6.200000	-0.185665	-99.122662	-25.619163	-4.537649	-25.619163	-4.537649	-0.202600	-108.719099
6.250000	-0.188268	-99.817419	-25.581290	-5.061975	-25.581290	-5.061975	-0.205439	-109.478771
6.300000	-0.190943	-100.509139	-25.543320	-5.579790	-25.543320	-5.579790	-0.208356	-110.235569
6.350000	-0.193619	-101.200859	-25.505514	-6.097605	-25.505514	-6.097605	-0.211274	-110.992367
6.400000	-0.196363	-101.889865	-25.467547	-6.609778	-25.467547	-6.609778	-0.214265	-111.746643
6.450000	-0.199114	-102.578624	-25.429716	-7.121438	-25.429716	-7.121438	-0.217263	-112.500690
6.500000	-0.201928	-103.264985	-25.391677	-7.628288	-25.391677	-7.628288	-0.220329	-113.252550
6.550000	-0.204756	-103.950865	-25.353731	-8.134176	-25.353731	-8.134176	-0.223410	-114.003973
6.600000	-0.207643	-104.634648	-25.315549	-8.636042	-25.315549	-8.636042	-0.226553	-114.753524
6.650000	-0.210550	-105.317732	-25.277402	-9.136568	-25.277402	-9.136568	-0.229717	-115.502452
6.700000	-0.213510	-105.999009	-25.239010	-9.633809	-25.239010	-9.633809	-0.232938	-116.249805
6.750000	-0.216497	-106.679383	-25.200581	-10.129409	-25.200581	-10.129409	-0.236189	-116.996370
6.800000	-0.219533	-107.358227	-25.161914	-10.622403	-25.161914	-10.622403	-0.239490	-117.741637
6.850000	-0.222602	-108.035978	-25.123127	-11.113536	-25.123127	-11.113536	-0.242828	-118.485975
6.900000	-0.225714	-108.712463	-25.084124	-11.602679	-25.084124	-11.602679	-0.246210	-119.229270
6.950000	-0.228869	-109.387682	-25.044909	-12.089832	-25.044909	-12.089832	-0.249637	-119.971521
7.000000	-0.232059	-110.061884	-25.005515	-12.575537	-25.005515	-12.575537	-0.253102	-120.712960
7.050000	-0.235299	-110.734662	-24.965805	-13.059217	-24.965805	-13.059217	-0.256620	-121.453264
7.100000	-0.238569	-111.406659	-24.925970	-13.541915	-24.925970	-13.541915	-0.260169	-122.192968
7.150000	-0.241897	-112.077092	-24.885706	-14.022651	-24.885706	-14.022651	-0.263779	-122.931470
7.200000	-0.245248	-112.746962	-24.845382	-14.502786	-24.845382	-14.502786	-0.267413	-123.669558
7.250000	-0.248666	-113.415146	-24.804511	-14.981122	-24.804511	-14.981122	-0.271118	-124.406405
7.300000	-0.252100	-114.082971	-24.763658	-15.459153	-24.763658	-15.459153	-0.274839	-125.143001
7.350000	-0.255609	-114.749005	-24.722134	-15.935651	-24.722134	-15.935651	-0.278639	-125.878344
7.400000	-0.259127	-115.414868	-24.680717	-16.412043	-24.680717	-16.412043	-0.282449	-126.613573
7.450000	-0.262729	-116.078852	-24.638500	-16.887274	-24.638500	-16.887274	-0.286346	-127.347564
7.500000	-0.266333	-116.742836	-24.596488	-17.362505	-24.596488	-17.362505	-0.290245	-128.081554
7.550000	-0.270030	-117.404873	-24.553547	-17.837045	-24.553547	-17.837045	-0.294241	-128.814348
7.600000	-0.273728	-118.066910	-24.510818	-18.311585	-24.510818	-18.311585	-0.298240	-129.547142
7.650000	-0.277514	-118.727258	-24.467227	-18.786022	-24.467227	-18.786022	-0.302328	-130.278985
7.700000	-0.281309	-119.387453	-24.423757	-19.260450	-24.423757	-19.260450	-0.306427	-131.010741
7.750000	-0.285185	-120.046201	-24.379505	-19.735262	-24.379505	-19.735262	-0.310609	-131.741767
7.800000	-0.289078	-120.704661	-24.335279	-20.210150	-24.335279	-20.210150	-0.314809	-132.472647
7.850000	-0.293046	-121.361900	-24.290361	-20.685806	-24.290361	-20.685806	-0.319086	-133.202992
7.900000	-0.297039	-122.018732	-24.245370	-21.161718	-24.245370	-21.161718	-0.323390	-133.933159
7.950000	-0.301099	-122.674554	-24.199787	-21.638676	-24.199787	-21.638676	-0.327763	-134.662962
8.000000	-0.305194	-123.329870	-24.154031	-22.116158	-24.154031	-22.116158	-0.332171	-135.392584
8.050000	-0.309349	-123.984367	-24.107788	-22.594862	-24.107788	-22.594862	-0.336641	-136.121986
8.100000	-0.313547	-124.638279	-24.061274	-23.074437	-24.061274	-23.074437	-0.341156	-136.851232
8.150000	-0.317797	-125.291546	-24.014385	-23.555307	-24.014385	-23.555307	-0.345725	-137.580375
8.200000	-0.322100	-125.944169	-23.967126	-24.037471	-23.967126	-24.037471	-0.350347	-138.309418
8.250000	-0.326447	-126.596303	-23.919606	-24.520906	-23.919606	-24.520906	-0.355015	-139.038448
8.300000	-0.330856	-127.247752	-23.871622	-25.006119	-23.871622	-25.006119	-0.359746	-139.767463
8.350000	-0.335302	-127.898850	-23.823492	-25.492488	-23.823492	-25.492488	-0.364515	-140.496527
8.400000	-0.339819	-128.549245	-23.774810	-25.981170	-23.774810	-25.981170	-0.369356	-141.225692
8.450000	-0.344364	-129.199406	-23.726095	-26.470813	-23.726095	-26.470813	-0.374226	-141.954940
8.500000	-0.348990	-129.848866	-23.676744	-26.963339	-23.676744	-26.963339	-0.379178	-142.684437
8.550000	-0.353636	-130.498190	-23.627473	-27.456560	-23.627473	-27.456560	-0.384151	-143.414020
8.600000	-0.358372	-131.146838	-23.577486	-27.953257	-23.577486	-27.953257	-0.389216	-144.144033
8.650000	-0.363121	-131.795428	-23.527689	-28.450325	-23.527689	-28.450325	-0.394292	-144.874105
8.700000	-0.367969	-132.443387	-23.477104	-28.951469	-23.477104	-28.951469	-0.399470	-145.604822
8.750000	-0.372821	-133.091346	-23.426812	-29.452613	-23.426812	-29.452613	-0.404651	-146.335539
8.800000	-0.377783	-133.738743	-23.375666	-29.958425	-23.375666	-29.958425	-0.409943	-147.067151
8.850000	-0.382747	-134.386140	-23.324819	-30.464238	-23.324819	-30.464238	-0.415239	-147.798762
8.900000	-0.387815	-135.033140	-23.273243	-30.974485	-23.273243	-30.974485	-0.420637	-148.531371
8.950000	-0.392895	-135.680103	-23.221879	-31.485135	-23.221879	-31.485135	-0.426048	-149.264071
9.000000	-0.398069	-136.326814	-23.169905	-31.999913	-23.169905	-31.999913	-0.431553	-149.997842
9.050000	-0.403265	-136.973474	-23.118060	-32.515517	-23.118060	-32.515517	-0.437080	-150.731827
9.100000	-0.408546	-137.620005	-23.065718	-33.034885	-23.065718	-33.034885	-0.442693	-151.466927
9.150000	-0.413859	-138.266495	-23.013424	-33.555508	-23.013424	-33.555508	-0.448337	-152.202397
9.200000	-0.419250	-138.912959	-22.960742	-34.079489	-22.960742	-34.079489	-0.454058	-152.938995
9.250000	-0.424681	-139.559412	-22.908030	-34.605150	-22.908030	-34.605150	-0.459819	-153.676155
9.300000	-0.430181	-140.205924	-22.855030	-35.133735	-22.855030	-35.133735	-0.465649	-154.414421
9.350000	-0.435731	-140.852477	-22.801924	-35.664409	-22.801924	-35.664409	-0.471528	-155.153478
9.400000	-0.441342	-141.499151	-22.748627	-36.197559	-22.748627	-36.197559	-0.477467	-155.893589
9.450000	-0.447012	-142.145944	-22.695145	-36.733186	-22.695145	-36.733186	-0.483465	-156.634753
9.500000	-0.452734	-142.792897	-22.641564	-37.270839	-22.641564	-37.270839	-0.489513	-157.376884
9.550000	-0.458526	-143.440072	-22.587718	-37.811328	-22.587718	-37.811328	-0.495630	-158.120370
9.600000	-0.464359	-144.087422	-22.533862	-38.353399	-22.533862	-38.353399	-0.501787	-158.864702
9.650000	-0.470273	-144.735122	-22.479657	-38.898636	-22.479657	-38.898636	-0.508023	-159.610727
9.700000	-0.476219	-145.382990	-22.425529	-39.445027	-22.425529	-39.445027	-0.514290	-160.357442
9.750000	-0.482255	-146.031363	-22.370961	-39.994882	-22.370961	-39.994882	-0.520645	-161.106228
9.800000	-0.488315	-146.679872	-22.316557	-40.545484	-22.316557	-40.545484	-0.527022	-161.855512
9.850000	-0.494474	-147.329065	-22.261613	-41.099821	-22.261613	-41.099821	-0.533495	-162.607284
9.900000	-0.500648	-147.978338	-22.206924	-41.654520	-22.206924	-41.654520	-0.539982	-163.359325
9.950000	-0.506931	-148.628504	-22.151584	-42.213204	-22.151584	-42.213204	-0.546573	-164.114313
10.000000	-0.513218	-149.278669	-22.096594	-42.771887	-22.096594	-42.771887	-0.553169	-164.869301
