! freq	dB(S11)	phase(S11)	dB(S12)	phase(S12)	
!     	dB(S21)	phase(S21)	dB(S22)	phase(S22)	
!S-par simulation data
#  GHz  S  DB  R 50
0.000000	-92.650923	0.000000	-0.000202	0.000000	-0.000202	0.000000	-92.650923	0.000000
0.050000	-53.910112	-90.445438	-0.000315	-0.824732	-0.000315	-0.824732	-53.909153	-90.442132
0.100000	-47.870981	-91.838584	-0.000649	-1.649262	-0.000649	-1.649262	-47.870334	-91.833011
0.150000	-44.326063	-92.932871	-0.001193	-2.473404	-0.001193	-2.473404	-44.325736	-92.926386
0.200000	-41.805844	-93.905300	-0.001929	-3.297005	-0.001929	-3.297005	-41.805752	-93.898717
0.250000	-39.850455	-94.806057	-0.002848	-4.119893	-0.002848	-4.119893	-39.850503	-94.799674
0.300000	-38.255018	-95.671065	-0.003910	-4.942042	-0.003910	-4.942042	-38.255136	-95.664859
0.350000	-36.909063	-96.514768	-0.005101	-5.763370	-0.005101	-5.763370	-36.909207	-96.508621
0.400000	-35.746386	-97.347574	-0.006398	-6.583853	-0.006398	-6.583853	-35.746532	-97.341343
0.450000	-34.724048	-98.175343	-0.007779	-7.403497	-0.007779	-7.403497	-34.724184	-98.168904
0.500000	-33.812622	-99.001276	-0.009227	-8.222330	-0.009227	-8.222330	-33.812742	-98.994527
0.550000	-32.991075	-99.827048	-0.010724	-9.040396	-0.010724	-9.040396	-32.991177	-99.819912
0.600000	-32.243864	-100.653483	-0.012259	-9.857752	-0.012259	-9.857752	-32.243947	-100.645903
0.650000	-31.559185	-101.480934	-0.013819	-10.674457	-0.013819	-10.674457	-31.559250	-101.472867
0.700000	-30.927866	-102.309499	-0.015398	-11.490576	-0.015398	-11.490576	-30.927915	-102.300912
0.750000	-30.342645	-103.139140	-0.016988	-12.306171	-0.016988	-12.306171	-30.342678	-103.130008
0.800000	-29.797670	-103.969753	-0.018586	-13.121302	-0.018586	-13.121302	-29.797689	-103.960057
0.850000	-29.288160	-104.801204	-0.020190	-13.936023	-0.020190	-13.936023	-29.288166	-104.790929
0.900000	-28.810160	-105.633353	-0.021797	-14.750384	-0.021797	-14.750384	-28.810154	-105.622487
0.950000	-28.360358	-106.466060	-0.023407	-15.564431	-0.023407	-15.564431	-28.360342	-106.454593
1.000000	-27.935956	-107.299196	-0.025019	-16.378202	-0.025019	-16.378202	-27.935930	-107.287120
1.050000	-27.534568	-108.132643	-0.026636	-17.191732	-0.026636	-17.191732	-27.534532	-108.119950
1.100000	-27.154140	-108.966294	-0.028256	-18.005051	-0.028256	-18.005051	-27.154096	-108.952979
1.150000	-26.792896	-109.800057	-0.029881	-18.818184	-0.029881	-18.818184	-26.792844	-109.786113
1.200000	-26.449287	-110.633851	-0.031512	-19.631154	-0.031512	-19.631154	-26.449228	-110.619272
1.250000	-26.121954	-111.467603	-0.033150	-20.443979	-0.033150	-20.443979	-26.121889	-111.452384
1.300000	-25.809844	-112.301249	-0.034797	-21.256671	-0.034797	-21.256671	-25.809772	-112.285383
1.350000	-25.511749	-113.134739	-0.036452	-22.069248	-0.036452	-22.069248	-25.511671	-113.118223
1.400000	-25.226725	-113.968035	-0.038117	-22.881723	-0.038117	-22.881723	-25.226642	-113.950861
1.450000	-24.953926	-114.801103	-0.039792	-23.694106	-0.039792	-23.694106	-24.953838	-114.783266
1.500000	-24.692594	-115.633917	-0.041479	-24.506404	-0.041479	-24.506404	-24.692502	-115.615412
1.550000	-24.442045	-116.466460	-0.043177	-25.318626	-0.043177	-25.318626	-24.441949	-116.447280
1.600000	-24.201662	-117.298719	-0.044886	-26.130778	-0.044886	-26.130778	-24.201561	-117.278857
1.650000	-23.970884	-118.130688	-0.046607	-26.942867	-0.046607	-26.942867	-23.970780	-118.110137
1.700000	-23.749201	-118.962364	-0.048340	-27.754897	-0.048340	-27.754897	-23.749093	-118.941118
1.750000	-23.536149	-119.793752	-0.050086	-28.566875	-0.050086	-28.566875	-23.536039	-119.771803
1.800000	-23.331304	-120.624860	-0.051842	-29.378805	-0.051842	-29.378805	-23.331190	-120.602200
1.850000	-23.134275	-121.455699	-0.053611	-30.190693	-0.053611	-30.190693	-23.134159	-121.432320
1.900000	-22.944707	-122.286287	-0.055391	-31.002542	-0.055391	-31.002542	-22.944589	-122.262180
1.950000	-22.762270	-123.116643	-0.057182	-31.814358	-0.057182	-31.814358	-22.762150	-123.091800
2.000000	-22.586662	-123.946790	-0.058983	-32.626146	-0.058983	-32.626146	-22.586540	-123.921201
2.050000	-22.417603	-124.776755	-0.060794	-33.437910	-0.060794	-33.437910	-22.417480	-124.750410
2.100000	-22.254834	-125.606568	-0.062615	-34.249657	-0.062615	-34.249657	-22.254710	-125.579457
2.150000	-22.098118	-126.436259	-0.064444	-35.061391	-0.064444	-35.061391	-22.097992	-126.408371
2.200000	-21.947231	-127.265864	-0.066282	-35.873117	-0.066282	-35.873117	-21.947105	-127.237188
2.250000	-21.801969	-128.095419	-0.068127	-36.684842	-0.068127	-36.684842	-21.801842	-128.065944
2.300000	-21.662140	-128.924964	-0.069979	-37.496572	-0.069979	-37.496572	-21.662013	-128.894677
2.350000	-21.527567	-129.754539	-0.071837	-38.308313	-0.071837	-38.308313	-21.527439	-129.723429
2.400000	-21.398084	-130.584187	-0.073701	-39.120071	-0.073701	-39.120071	-21.397957	-130.552240
2.450000	-21.273539	-131.413953	-0.075569	-39.931854	-0.075569	-39.931854	-21.273412	-131.381155
2.500000	-21.153788	-132.243883	-0.077441	-40.743668	-0.077441	-40.743668	-21.153661	-132.210220
2.550000	-21.038831	-133.074035	-0.079317	-41.555523	-0.079317	-41.555523	-21.038705	-133.039492
2.600000	-20.928411	-133.904451	-0.081194	-42.367426	-0.081194	-42.367426	-20.928286	-133.869014
2.650000	-20.822412	-134.735181	-0.083073	-43.179385	-0.083073	-43.179385	-20.822288	-134.698833
2.700000	-20.720727	-135.566276	-0.084953	-43.991408	-0.084953	-43.991408	-20.720604	-135.529001
2.750000	-20.623256	-136.397788	-0.086833	-44.803503	-0.086833	-44.803503	-20.623133	-136.359569
2.800000	-20.529904	-137.229769	-0.088712	-45.615680	-0.088712	-45.615680	-20.529783	-137.190589
2.850000	-20.440586	-138.062274	-0.090590	-46.427948	-0.090590	-46.427948	-20.440467	-138.022114
2.900000	-20.355222	-138.895356	-0.092466	-47.240316	-0.092466	-47.240316	-20.355104	-138.854198
2.950000	-20.273735	-139.729070	-0.094339	-48.052795	-0.094339	-48.052795	-20.273619	-139.686894
3.000000	-20.196058	-140.563471	-0.096209	-48.865393	-0.096209	-48.865393	-20.195943	-140.520258
3.050000	-20.122125	-141.398615	-0.098074	-49.678122	-0.098074	-49.678122	-20.122013	-141.354344
3.100000	-20.051878	-142.234559	-0.099935	-50.490992	-0.099935	-50.490992	-20.051768	-142.189209
3.150000	-19.985263	-143.071360	-0.101791	-51.304014	-0.101791	-51.304014	-19.985155	-143.024908
3.200000	-19.922228	-143.909075	-0.103641	-52.117199	-0.103641	-52.117199	-19.922123	-143.861497
3.250000	-19.862729	-144.747761	-0.105485	-52.930557	-0.105485	-52.930557	-19.862626	-144.699034
3.300000	-19.806724	-145.587476	-0.107322	-53.744101	-0.107322	-53.744101	-19.806623	-145.537576
3.350000	-19.754174	-146.428280	-0.109152	-54.557842	-0.109152	-54.557842	-19.754077	-146.377181
3.400000	-19.705046	-147.270230	-0.110975	-55.371792	-0.110975	-55.371792	-19.704952	-147.217906
3.450000	-19.659309	-148.113388	-0.112790	-56.185963	-0.112790	-56.185963	-19.659219	-148.059810
3.500000	-19.616937	-148.957812	-0.114597	-57.000367	-0.114597	-57.000367	-19.616850	-148.902953
3.550000	-19.577904	-149.803564	-0.116396	-57.815016	-0.116396	-57.815016	-19.577821	-149.747393
3.600000	-19.542193	-150.650704	-0.118186	-58.629923	-0.118186	-58.629923	-19.542113	-150.593191
3.650000	-19.509784	-151.499295	-0.119967	-59.445101	-0.119967	-59.445101	-19.509709	-151.440408
3.700000	-19.480664	-152.349399	-0.121740	-60.260561	-0.121740	-60.260561	-19.480594	-152.289106
3.750000	-19.454822	-153.201080	-0.123504	-61.076318	-0.123504	-61.076318	-19.454757	-153.139346
3.800000	-19.432390	-154.054478	-0.125258	-61.892398	-0.125258	-61.892398	-19.432330	-153.991265
3.850000	-19.413224	-154.909590	-0.127004	-62.708802	-0.127004	-62.708802	-19.413170	-154.844860
3.900000	-19.397322	-155.766483	-0.128740	-63.525542	-0.128740	-63.525542	-19.397274	-155.700199
3.950000	-19.384684	-156.625227	-0.130469	-64.342632	-0.130469	-64.342632	-19.384644	-156.557347
4.000000	-19.375315	-157.485891	-0.132188	-65.160085	-0.132188	-65.160085	-19.375282	-157.416373
4.050000	-19.369221	-158.348549	-0.133900	-65.977914	-0.133900	-65.977914	-19.369196	-158.277350
4.100000	-19.366411	-159.213275	-0.135603	-66.796134	-0.135603	-66.796134	-19.366394	-159.140348
4.150000	-19.366898	-160.080146	-0.137299	-67.614756	-0.137299	-67.614756	-19.366890	-160.005443
4.200000	-19.370695	-160.949241	-0.138988	-68.433796	-0.138988	-68.433796	-19.370697	-160.872713
4.250000	-19.377823	-161.820642	-0.140670	-69.253265	-0.140670	-69.253265	-19.377835	-161.742237
4.300000	-19.388301	-162.694436	-0.142346	-70.073178	-0.142346	-70.073178	-19.388325	-162.614099
4.350000	-19.402153	-163.570712	-0.144016	-70.893549	-0.144016	-70.893549	-19.402190	-163.488385
4.400000	-19.419407	-164.449561	-0.145681	-71.714389	-0.145681	-71.714389	-19.419457	-164.365185
4.450000	-19.440092	-165.331081	-0.147342	-72.535714	-0.147342	-72.535714	-19.440157	-165.244594
4.500000	-19.464243	-166.215374	-0.148999	-73.357535	-0.148999	-73.357535	-19.464324	-166.126709
4.550000	-19.491896	-167.102547	-0.150653	-74.179867	-0.150653	-74.179867	-19.491993	-167.011636
4.600000	-19.523091	-167.992712	-0.152305	-75.002722	-0.152305	-75.002722	-19.523207	-167.899483
4.650000	-19.557871	-168.885988	-0.153955	-75.826114	-0.153955	-75.826114	-19.558007	-168.790365
4.700000	-19.596285	-169.782500	-0.155606	-76.650055	-0.155606	-76.650055	-19.596443	-169.684404
4.750000	-19.638384	-170.682380	-0.157257	-77.474558	-0.157257	-77.474558	-19.638565	-170.581728
4.800000	-19.684222	-171.585771	-0.158910	-78.299636	-0.158910	-78.299636	-19.684429	-171.482473
4.850000	-19.733860	-172.492821	-0.160566	-79.125302	-0.160566	-79.125302	-19.734094	-172.386786
4.900000	-19.787361	-173.403690	-0.162226	-79.951567	-0.162226	-79.951567	-19.787626	-173.294820
4.950000	-19.844795	-174.318548	-0.163891	-80.778445	-0.163891	-80.778445	-19.845092	-174.206740
5.000000	-19.906234	-175.237576	-0.165563	-81.605947	-0.165563	-81.605947	-19.906566	-175.122723
5.050000	-19.971916	-176.161170	-0.167242	-82.434114	-0.167242	-82.434114	-19.972286	-176.043151
5.100000	-20.041768	-177.089357	-0.168931	-83.262929	-0.168931	-83.262929	-20.042180	-176.968051
5.150000	-20.115882	-178.022364	-0.170631	-84.092405	-0.170631	-84.092405	-20.116338	-177.897643
5.200000	-20.194352	-178.960436	-0.172343	-84.922553	-0.172343	-84.922553	-20.194857	-178.832162
5.250000	-20.277283	-179.903833	-0.174068	-85.753383	-0.174068	-85.753383	-20.277841	-179.771864
5.300000	-20.364784	179.147161	-0.175809	-86.584906	-0.175809	-86.584906	-20.365400	179.282978
5.350000	-20.456973	178.192239	-0.177566	-87.417133	-0.177566	-87.417133	-20.457651	178.332067
5.400000	-20.553976	177.231071	-0.179342	-88.250074	-0.179342	-88.250074	-20.554723	177.375082
5.450000	-20.655928	176.263297	-0.181138	-89.083740	-0.181138	-89.083740	-20.656748	176.411674
5.500000	-20.762972	175.288526	-0.182956	-89.918139	-0.182956	-89.918139	-20.763873	175.441464
5.550000	-20.875263	174.306333	-0.184798	-90.753281	-0.184798	-90.753281	-20.876253	174.464041
5.600000	-20.992965	173.316255	-0.186665	-91.589175	-0.186665	-91.589175	-20.994052	173.478955
5.650000	-21.116257	172.317785	-0.188560	-92.425829	-0.188560	-92.425829	-21.117449	172.485714
5.700000	-21.245327	171.310371	-0.190484	-93.263253	-0.190484	-93.263253	-21.246634	171.483783
5.750000	-21.380380	170.293405	-0.192439	-94.101454	-0.192439	-94.101454	-21.381814	170.472572
5.800000	-21.521633	169.266221	-0.194427	-94.940440	-0.194427	-94.940440	-21.523207	169.451434
5.850000	-21.669324	168.228084	-0.196450	-95.780218	-0.196450	-95.780218	-21.671050	168.419657
5.900000	-21.823706	167.178186	-0.198511	-96.620795	-0.198511	-96.620795	-21.825600	167.376455
5.950000	-21.985051	166.115630	-0.200611	-97.462177	-0.200611	-97.462177	-21.987131	166.320959
6.000000	-22.153655	165.039426	-0.202753	-98.304371	-0.202753	-98.304371	-22.155940	165.252207
6.050000	-22.329837	163.948470	-0.204938	-99.147383	-0.204938	-99.147383	-22.332349	164.169127
6.100000	-22.513941	162.841535	-0.207169	-99.991217	-0.207169	-99.991217	-22.516705	163.070527
6.150000	-22.706343	161.717250	-0.209448	-100.835878	-0.209448	-100.835878	-22.709386	161.955073
6.200000	-22.907446	160.574077	-0.211778	-101.681372	-0.211778	-101.681372	-22.910802	160.821274
6.250000	-23.117694	159.410290	-0.214159	-102.527701	-0.214159	-102.527701	-23.121397	159.667449
6.300000	-23.337752	158.222855	-0.216598	-103.374907	-0.216598	-103.374907	-23.341847	158.490650
6.350000	-23.567959	157.010426	-0.219094	-104.222955	-0.219094	-104.222955	-23.572494	157.289566
6.400000	-23.808886	155.770451	-0.221649	-105.071849	-0.221649	-105.071849	-23.813916	156.061712
6.450000	-24.061156	154.500017	-0.224267	-105.921590	-0.224267	-105.921590	-24.066747	154.804254
6.500000	-24.325455	153.195787	-0.226948	-106.772180	-0.226948	-106.772180	-24.331681	153.513938
6.550000	-24.602533	151.853913	-0.229695	-107.623620	-0.229695	-107.623620	-24.609483	152.187016
6.600000	-24.893215	150.469949	-0.232512	-108.475911	-0.232512	-108.475911	-24.900991	150.819151
6.650000	-25.198407	149.038723	-0.235399	-109.329053	-0.235399	-109.329053	-25.207132	149.405294
6.700000	-25.519107	147.554190	-0.238360	-110.183045	-0.238360	-110.183045	-25.528926	147.939541
6.750000	-25.856417	146.009249	-0.241397	-111.037886	-0.241397	-111.037886	-25.867503	146.414948
6.800000	-26.211548	144.395504	-0.244511	-111.893576	-0.244511	-111.893576	-26.224109	144.823298
6.850000	-26.585832	142.702973	-0.247706	-112.750111	-0.247706	-112.750111	-26.600120	143.154806
6.900000	-26.980312	140.933384	-0.250973	-113.607381	-0.250973	-113.607381	-26.996610	141.411108
6.950000	-27.397531	139.046030	-0.254336	-114.465610	-0.254336	-114.465610	-27.416236	139.552359
7.000000	-27.838721	137.036146	-0.257787	-115.324676	-0.257787	-115.324676	-27.860296	137.573749
7.050000	-28.305749	134.882376	-0.261327	-116.184576	-0.261327	-116.184576	-28.330772	135.454189
7.100000	-28.800581	132.558428	-0.264959	-117.045304	-0.264959	-117.045304	-28.829777	133.167640
7.150000	-29.325219	130.031720	-0.268685	-117.906855	-0.268685	-117.906855	-29.359506	130.681717
7.200000	-29.881581	127.261612	-0.272507	-118.769223	-0.272507	-118.769223	-29.922127	127.955859
7.250000	-30.471290	124.197176	-0.276428	-119.632403	-0.276428	-119.632403	-30.519593	124.938962
7.300000	-31.095299	120.774422	-0.280449	-120.496388	-0.280449	-120.496388	-31.153283	121.566390
7.350000	-31.753262	116.913072	-0.284573	-121.361171	-0.284573	-121.361171	-31.823398	117.756378
7.400000	-32.442483	112.513292	-0.288802	-122.226743	-0.288802	-122.226743	-32.527918	113.406134
7.450000	-33.156231	107.453510	-0.293137	-123.093096	-0.293137	-123.093096	-33.260887	108.388697
7.500000	-33.881181	101.592027	-0.297581	-123.960223	-0.297581	-123.960223	-34.009718	102.553175
7.550000	-34.591563	94.753977	-0.302138	-124.828129	-0.302138	-124.828129	-34.748990	95.709058
7.600000	-35.250222	86.829399	-0.306808	-125.696788	-0.306808	-125.696788	-35.440737	87.726161
7.650000	-35.803057	77.774954	-0.311592	-126.566190	-0.311592	-126.566190	-36.027974	78.538969
7.700000	-36.185222	67.713178	-0.316492	-127.436324	-0.316492	-127.436324	-36.440254	68.257817
7.750000	-36.323199	56.974438	-0.321517	-128.307218	-0.321517	-128.307218	-36.596103	57.224128
7.800000	-36.212032	46.167936	-0.326656	-129.178789	-0.326656	-129.178789	-36.487127	46.100040
7.850000	-35.855871	35.819099	-0.331916	-130.051056	-0.331916	-130.051056	-36.117485	35.461336
7.900000	-35.304599	26.348361	-0.337298	-130.924007	-0.337298	-130.924007	-35.542132	25.765304
7.950000	-34.622280	17.960992	-0.342805	-131.797629	-0.342805	-131.797629	-34.831341	17.226937
8.000000	-33.867681	10.675484	-0.348437	-132.671907	-0.348437	-132.671907	-34.048543	9.854934
8.050000	-33.085152	4.397100	-0.354196	-133.546829	-0.354196	-133.546829	-33.240571	3.537536
8.100000	-32.304051	-1.015091	-0.360083	-134.422380	-0.360083	-134.422380	-32.437629	-1.882313
8.150000	-31.541936	-5.706516	-0.366099	-135.298545	-0.366099	-135.298545	-31.657235	-6.562295
8.200000	-30.808285	-9.807650	-0.372245	-136.175309	-0.372245	-136.175309	-30.908450	-10.641204
8.250000	-30.107474	-13.428000	-0.378522	-137.052656	-0.378522	-137.052656	-30.195142	-14.233845
8.300000	-29.440832	-16.656491	-0.384931	-137.930571	-0.384931	-137.930571	-29.518155	-17.432378
8.350000	-28.807953	-19.564256	-0.391473	-138.809037	-0.391473	-138.809037	-28.876671	-20.309843
8.400000	-28.207501	-22.207895	-0.398147	-139.688039	-0.398147	-139.688039	-28.269015	-22.923927
8.450000	-27.637691	-24.632473	-0.404956	-140.567558	-0.404956	-140.567558	-27.693132	-25.320276
8.500000	-27.096564	-26.874004	-0.411899	-141.447579	-0.411899	-141.447579	-27.146849	-27.535182
8.550000	-26.582148	-28.961430	-0.418977	-142.328084	-0.418977	-142.328084	-26.628024	-29.597688
8.600000	-26.092543	-30.918163	-0.426190	-143.209055	-0.426190	-143.209055	-26.134624	-31.531203
8.650000	-25.625962	-32.763273	-0.433538	-144.090475	-0.433538	-144.090475	-25.664756	-33.354735
8.700000	-25.180751	-34.512399	-0.441021	-144.972326	-0.441021	-144.972326	-25.216680	-35.083835
8.750000	-24.755394	-36.178463	-0.448640	-145.854590	-0.448640	-145.854590	-24.788811	-36.731318
8.800000	-24.348475	-37.770207	-0.456397	-146.737260	-0.456397	-146.737260	-24.379680	-38.305860
8.850000	-23.958787	-39.299107	-0.464290	-147.620305	-0.464290	-147.620305	-23.988034	-39.818783
8.900000	-23.585184	-40.772613	-0.472316	-148.503707	-0.472316	-148.503707	-23.612688	-41.277438
8.950000	-23.226621	-42.197041	-0.480476	-149.387448	-0.480476	-149.387448	-23.252568	-42.688050
9.000000	-22.882151	-43.577779	-0.488769	-150.271507	-0.488769	-150.271507	-22.906703	-44.055918
9.050000	-22.550916	-44.919436	-0.497195	-151.155868	-0.497195	-151.155868	-22.574211	-45.385576
9.100000	-22.232131	-46.225982	-0.505751	-152.040511	-0.505751	-152.040511	-22.254291	-46.680921
9.150000	-21.925084	-47.500844	-0.514438	-152.925418	-0.514438	-152.925418	-21.946216	-47.945315
9.200000	-21.629121	-48.746994	-0.523255	-153.810571	-0.523255	-153.810571	-21.649319	-49.181672
9.250000	-21.343648	-49.967020	-0.532199	-154.695951	-0.532199	-154.695951	-21.362995	-50.392526
9.300000	-21.068116	-51.163179	-0.541270	-155.581539	-0.541270	-155.581539	-21.086688	-51.580087
9.350000	-20.802026	-52.337451	-0.550466	-156.467318	-0.550466	-156.467318	-20.819889	-52.746289
9.400000	-20.544929	-53.491369	-0.559786	-157.353272	-0.559786	-157.353272	-20.562141	-53.892633
9.450000	-20.296401	-54.626511	-0.569229	-158.239382	-0.569229	-158.239382	-20.313017	-55.020657
9.500000	-20.056037	-55.744431	-0.578792	-159.125629	-0.578792	-159.125629	-20.072105	-56.131880
9.550000	-19.823474	-56.846313	-0.588472	-160.011995	-0.588472	-160.011995	-19.839038	-57.227454
9.600000	-19.598375	-57.933206	-0.598268	-160.898463	-0.598268	-160.898463	-19.613474	-58.308402
9.650000	-19.380425	-59.006041	-0.608177	-161.785018	-0.608177	-161.785018	-19.395096	-59.375630
9.700000	-19.169333	-60.065643	-0.618197	-162.671641	-0.618197	-162.671641	-19.183610	-60.429940
9.750000	-18.964827	-61.112749	-0.628325	-163.558319	-0.628325	-163.558319	-18.978741	-61.472048
9.800000	-18.766655	-62.148012	-0.638558	-164.445034	-0.638558	-164.445034	-18.780232	-62.502589
9.850000	-18.574577	-63.172015	-0.648894	-165.331773	-0.648894	-165.331773	-18.587846	-63.522127
9.900000	-18.388373	-64.185278	-0.659330	-166.218520	-0.659330	-166.218520	-18.401356	-64.531166
9.950000	-18.207833	-65.188262	-0.669863	-167.105260	-0.669863	-167.105260	-18.220553	-65.530154
10.000000	-18.032761	-66.181381	-0.680490	-167.991982	-0.680490	-167.991982	-18.045239	-66.519489
