! freq	dB(S11)	phase(S11)	dB(S12)	phase(S12)	
!     	dB(S21)	phase(S21)	dB(S22)	phase(S22)	
!S-par simulation data
#  GHz  S  DB  R 50
0.000000	-0.000000	0.000000	-315.154096	0.000000	-315.154096	0.000000	-0.000000	0.000000
0.050000	-0.008569	-1.117517	-53.008826	88.890370	-53.008826	88.890370	-0.007743	-1.057226
0.100000	-0.009327	-2.210947	-46.990334	87.781572	-46.990334	87.781572	-0.008701	-2.087606
0.150000	-0.009811	-3.308958	-43.472103	86.674467	-43.472103	86.674467	-0.009216	-3.122843
0.200000	-0.010367	-4.407939	-40.977995	85.569573	-40.977995	85.569573	-0.009768	-4.159264
0.250000	-0.011046	-5.507014	-39.045716	84.467620	-39.045716	84.467620	-0.010427	-5.195920
0.300000	-0.011859	-6.605774	-37.469226	83.369176	-37.469226	83.369176	-0.011210	-6.232375
0.350000	-0.012795	-7.704012	-36.138295	82.274344	-36.138295	82.274344	-0.012110	-7.268405
0.400000	-0.013870	-8.801470	-34.987696	81.183928	-34.987696	81.183928	-0.013141	-8.303769
0.450000	-0.015056	-9.898146	-33.974463	80.097362	-33.974463	80.097362	-0.014280	-9.338450
0.500000	-0.016372	-10.993743	-33.070232	79.015525	-33.070232	79.015525	-0.015542	-10.372179
0.550000	-0.017791	-12.088330	-32.253792	77.937649	-32.253792	77.937649	-0.016904	-11.405014
0.600000	-0.019320	-13.181679	-31.510201	76.864132	-31.510201	76.864132	-0.018372	-12.436750
0.650000	-0.020946	-14.273772	-30.827682	75.794601	-30.827682	75.794601	-0.019934	-13.467369
0.700000	-0.022664	-15.364527	-30.197213	74.728889	-30.197213	74.728889	-0.021585	-14.496796
0.750000	-0.024471	-16.453787	-29.611770	73.667029	-29.611770	73.667029	-0.023323	-15.524893
0.800000	-0.026353	-17.541651	-29.065313	72.608416	-29.065313	72.608416	-0.025133	-16.551746
0.850000	-0.028315	-18.627784	-28.553512	71.553450	-28.553512	71.553450	-0.027023	-17.577059
0.900000	-0.030340	-19.712434	-28.072038	70.501326	-28.072038	70.501326	-0.028973	-18.601051
0.950000	-0.032431	-20.795255	-27.617987	69.452410	-27.617987	69.452410	-0.030989	-19.623415
1.000000	-0.034577	-21.876423	-27.188315	68.406159	-27.188315	68.406159	-0.033059	-20.644311
1.050000	-0.036776	-22.955753	-26.780822	67.362655	-26.780822	67.362655	-0.035181	-21.663572
1.100000	-0.039023	-24.033233	-26.393438	66.321736	-26.393438	66.321736	-0.037351	-22.681188
1.150000	-0.041311	-25.108888	-26.024341	65.283210	-26.024341	65.283210	-0.039563	-23.697184
1.200000	-0.043642	-26.182493	-25.672176	64.247235	-25.672176	64.247235	-0.041817	-24.711360
1.250000	-0.046005	-27.254309	-25.335323	63.213385	-25.335323	63.213385	-0.044104	-25.723949
1.300000	-0.048405	-28.323873	-25.012981	62.182106	-25.012981	62.182106	-0.046428	-26.734540
1.350000	-0.050831	-29.391578	-24.703723	61.152879	-24.703723	61.152879	-0.048779	-27.743483
1.400000	-0.053287	-30.457069	-24.406888	60.126036	-24.406888	60.126036	-0.051161	-28.750463
1.450000	-0.055766	-31.520515	-24.121472	59.101350	-24.121472	59.101350	-0.053566	-29.755631
1.500000	-0.058269	-32.581799	-23.846793	58.078908	-23.846793	58.078908	-0.055996	-30.758884
1.550000	-0.060793	-33.640847	-23.582205	57.058764	-23.582205	57.058764	-0.058448	-31.760157
1.600000	-0.063335	-34.697798	-23.326968	56.040757	-23.326968	56.040757	-0.060920	-32.759573
1.650000	-0.065898	-35.752319	-23.080747	55.025219	-23.080747	55.025219	-0.063412	-33.756837
1.700000	-0.068477	-36.804506	-22.842938	54.012047	-22.842938	54.012047	-0.065923	-34.752035
1.750000	-0.071072	-37.854519	-22.612945	53.001081	-22.612945	53.001081	-0.068449	-35.745307
1.800000	-0.073682	-38.902198	-22.390437	51.992489	-22.390437	51.992489	-0.070992	-36.736512
1.850000	-0.076307	-39.947515	-22.175023	50.986307	-22.175023	50.986307	-0.073550	-37.725625
1.900000	-0.078945	-40.990442	-21.966342	49.982576	-21.966342	49.982576	-0.076123	-38.712622
1.950000	-0.081597	-42.030955	-21.764060	48.981336	-21.764060	48.981336	-0.078710	-39.697479
2.000000	-0.084263	-43.069026	-21.567869	47.982628	-21.567869	47.982628	-0.081312	-40.680172
2.050000	-0.086941	-44.104631	-21.377482	46.986494	-21.377482	46.986494	-0.083927	-41.660679
2.100000	-0.089632	-45.137747	-21.192632	45.992978	-21.192632	45.992978	-0.086555	-42.638978
2.150000	-0.092335	-46.168350	-21.013070	45.002122	-21.013070	45.002122	-0.089196	-43.615047
2.200000	-0.095051	-47.196417	-20.838562	44.013968	-20.838562	44.013968	-0.091851	-44.588865
2.250000	-0.097779	-48.221928	-20.668892	43.028558	-20.668892	43.028558	-0.094519	-45.560412
2.300000	-0.100520	-49.244861	-20.503854	42.045931	-20.503854	42.045931	-0.097199	-46.529668
2.350000	-0.103273	-50.265197	-20.343257	41.066128	-20.343257	41.066128	-0.099892	-47.496614
2.400000	-0.106039	-51.282918	-20.186919	40.089188	-20.186919	40.089188	-0.102599	-48.461233
2.450000	-0.108817	-52.298005	-20.034670	39.115147	-20.034670	39.115147	-0.105318	-49.423506
2.500000	-0.111608	-53.310442	-19.886350	38.144040	-19.886350	38.144040	-0.108050	-50.383418
2.550000	-0.114412	-54.320097	-19.741862	37.176034	-19.741862	37.176034	-0.110796	-51.340848
2.600000	-0.117229	-55.327070	-19.601004	36.211031	-19.601004	36.211031	-0.113555	-52.295884
2.650000	-0.120060	-56.331348	-19.463639	35.249063	-19.463639	35.249063	-0.116327	-53.248513
2.700000	-0.122903	-57.332920	-19.329638	34.290159	-19.329638	34.290159	-0.119113	-54.198720
2.750000	-0.125760	-58.331773	-19.198877	33.334343	-19.198877	33.334343	-0.121913	-55.146495
2.800000	-0.128631	-59.327898	-19.071240	32.381643	-19.071240	32.381643	-0.124726	-56.091826
2.850000	-0.131516	-60.321287	-18.946613	31.432079	-18.946613	31.432079	-0.127553	-57.034702
2.900000	-0.134415	-61.311930	-18.824891	30.485674	-18.824891	30.485674	-0.130393	-57.975114
2.950000	-0.137328	-62.299823	-18.705972	29.542446	-18.705972	29.542446	-0.133249	-58.913054
3.000000	-0.140255	-63.284958	-18.589757	28.602412	-18.589757	28.602412	-0.136118	-59.848514
3.050000	-0.143198	-64.267333	-18.476155	27.665587	-18.476155	27.665587	-0.139002	-60.781487
3.100000	-0.146155	-65.246944	-18.365076	26.731984	-18.365076	26.731984	-0.141901	-61.711968
3.150000	-0.149128	-66.223789	-18.256434	25.801614	-18.256434	25.801614	-0.144815	-62.639953
3.200000	-0.152116	-67.197868	-18.150148	24.874486	-18.150148	24.874486	-0.147744	-63.565437
3.250000	-0.155120	-68.169180	-18.046138	23.950608	-18.046138	23.950608	-0.150688	-64.488418
3.300000	-0.158140	-69.137728	-17.944330	23.029985	-17.944330	23.029985	-0.153649	-65.408895
3.350000	-0.161176	-70.103514	-17.844650	22.112620	-17.844650	22.112620	-0.156625	-66.326865
3.400000	-0.164229	-71.066543	-17.747029	21.198515	-17.747029	21.198515	-0.159617	-67.242331
3.450000	-0.167299	-72.026818	-17.651399	20.287669	-17.651399	20.287669	-0.162626	-68.155293
3.500000	-0.170386	-72.984346	-17.557695	19.380082	-17.557695	19.380082	-0.165651	-69.065752
3.550000	-0.173491	-73.939135	-17.465855	18.475749	-17.465855	18.475749	-0.168694	-69.973712
3.600000	-0.176614	-74.891193	-17.375818	17.574666	-17.375818	17.574666	-0.171754	-70.879178
3.650000	-0.179755	-75.840529	-17.287527	16.676824	-17.287527	16.676824	-0.174831	-71.782153
3.700000	-0.182914	-76.787154	-17.200925	15.782216	-17.200925	15.782216	-0.177927	-72.682644
3.750000	-0.186093	-77.731079	-17.115958	14.890832	-17.115958	14.890832	-0.181040	-73.580657
3.800000	-0.189291	-78.672201	-17.032605	14.002799	-17.032605	14.002799	-0.184174	-74.476094
3.850000	-0.192510	-79.610650	-16.950783	13.117963	-16.950783	13.117963	-0.187326	-75.369070
3.900000	-0.195749	-80.546442	-16.870440	12.236311	-16.870440	12.236311	-0.190498	-76.259595
3.950000	-0.199008	-81.479593	-16.791531	11.357826	-16.791531	11.357826	-0.193690	-77.147679
4.000000	-0.202289	-82.410119	-16.714010	10.482490	-16.714010	10.482490	-0.196902	-78.033334
4.050000	-0.205591	-83.338038	-16.637830	9.610286	-16.637830	9.610286	-0.200135	-78.916572
4.100000	-0.208915	-84.263369	-16.562950	8.741194	-16.562950	8.741194	-0.203389	-79.797405
4.150000	-0.212262	-85.186132	-16.489328	7.875192	-16.489328	7.875192	-0.206665	-80.675847
4.200000	-0.215632	-86.106346	-16.416922	7.012259	-16.416922	7.012259	-0.209963	-81.551913
4.250000	-0.219025	-87.024034	-16.345694	6.152370	-16.345694	6.152370	-0.213284	-82.425618
4.300000	-0.222443	-87.939218	-16.275605	5.295503	-16.275605	5.295503	-0.216628	-83.296978
4.350000	-0.225885	-88.851920	-16.206618	4.441631	-16.206618	4.441631	-0.219996	-84.166010
4.400000	-0.229352	-89.762166	-16.138697	3.590729	-16.138697	3.590729	-0.223388	-85.032731
4.450000	-0.232845	-90.669980	-16.071807	2.742769	-16.071807	2.742769	-0.226805	-85.897160
4.500000	-0.236364	-91.575387	-16.005913	1.897723	-16.005913	1.897723	-0.230247	-86.759315
4.550000	-0.239911	-92.478414	-15.940984	1.055562	-15.940984	1.055562	-0.233716	-87.619217
4.600000	-0.243485	-93.379089	-15.876985	0.216257	-15.876985	0.216257	-0.237212	-88.476885
4.650000	-0.247087	-94.277440	-15.813887	-0.620224	-15.813887	-0.620224	-0.240734	-89.332340
4.700000	-0.250719	-95.173494	-15.751658	-1.453911	-15.751658	-1.453911	-0.244285	-90.185605
4.750000	-0.254380	-96.067283	-15.690269	-2.284837	-15.690269	-2.284837	-0.247865	-91.036702
4.800000	-0.258071	-96.958835	-15.629690	-3.113035	-15.629690	-3.113035	-0.251474	-91.885653
4.850000	-0.261794	-97.848183	-15.569895	-3.938538	-15.569895	-3.938538	-0.255114	-92.732482
4.900000	-0.265548	-98.735357	-15.510854	-4.761380	-15.510854	-4.761380	-0.258784	-93.577213
4.950000	-0.269335	-99.620390	-15.452541	-5.581596	-15.452541	-5.581596	-0.262486	-94.419871
5.000000	-0.273155	-100.503314	-15.394931	-6.399221	-15.394931	-6.399221	-0.266220	-95.260481
5.050000	-0.277011	-101.384076	-15.338009	-7.214183	-15.338009	-7.214183	-0.269990	-96.098983
5.100000	-0.280902	-102.262800	-15.281738	-8.026630	-15.281738	-8.026630	-0.273793	-96.935492
5.150000	-0.284829	-103.139522	-15.226092	-8.836600	-15.226092	-8.836600	-0.277631	-97.770035
5.200000	-0.288792	-104.014277	-15.171049	-9.644131	-15.171049	-9.644131	-0.281506	-98.602639
5.250000	-0.292793	-104.887102	-15.116584	-10.449261	-15.116584	-10.449261	-0.285417	-99.433333
5.300000	-0.296833	-105.758032	-15.062676	-11.252029	-15.062676	-11.252029	-0.289365	-100.262145
5.350000	-0.300912	-106.627105	-15.009302	-12.052474	-15.009302	-12.052474	-0.293353	-101.089105
5.400000	-0.305031	-107.494360	-14.956440	-12.850637	-14.956440	-12.850637	-0.297379	-101.914242
5.450000	-0.309191	-108.359833	-14.904069	-13.646559	-14.904069	-13.646559	-0.301446	-102.737585
5.500000	-0.313393	-109.223564	-14.852169	-14.440279	-14.852169	-14.440279	-0.305555	-103.559166
5.550000	-0.317639	-110.085593	-14.800719	-15.231841	-14.800719	-15.231841	-0.309706	-104.379014
5.600000	-0.321928	-110.945958	-14.749698	-16.021286	-14.749698	-16.021286	-0.313900	-105.197163
5.650000	-0.326263	-111.804701	-14.699089	-16.808658	-14.699089	-16.808658	-0.318139	-106.013642
5.700000	-0.330643	-112.661862	-14.648870	-17.593999	-14.648870	-17.593999	-0.322423	-106.828485
5.750000	-0.335071	-113.517482	-14.599024	-18.377355	-14.599024	-18.377355	-0.326754	-107.641724
5.800000	-0.339547	-114.371604	-14.549532	-19.158769	-14.549532	-19.158769	-0.331132	-108.453392
5.850000	-0.344072	-115.224268	-14.500376	-19.938288	-14.500376	-19.938288	-0.335559	-109.263522
5.900000	-0.348647	-116.075519	-14.451538	-20.715958	-14.451538	-20.715958	-0.340035	-110.072149
5.950000	-0.353274	-116.925398	-14.403001	-21.491826	-14.403001	-21.491826	-0.344563	-110.879305
6.000000	-0.357953	-117.773950	-14.354747	-22.265940	-14.354747	-22.265940	-0.349142	-111.685027
6.050000	-0.362685	-118.621217	-14.306760	-23.038348	-14.306760	-23.038348	-0.353775	-112.489348
6.100000	-0.367473	-119.467246	-14.259023	-23.809101	-14.259023	-23.809101	-0.358462	-113.292303
6.150000	-0.372316	-120.312079	-14.211519	-24.578250	-14.211519	-24.578250	-0.363204	-114.093929
6.200000	-0.377216	-121.155763	-14.164233	-25.345845	-14.164233	-25.345845	-0.368003	-114.894261
6.250000	-0.382175	-121.998343	-14.117148	-26.111941	-14.117148	-26.111941	-0.372861	-115.693336
6.300000	-0.387195	-122.839821	-14.070246	-26.876530	-14.070246	-26.876530	-0.377779	-116.491138
6.350000	-0.392276	-123.680291	-14.023514	-27.639734	-14.023514	-27.639734	-0.382759	-117.287760
6.400000	-0.397419	-124.519800	-13.976937	-28.401609	-13.976937	-28.401609	-0.387800	-118.083238
6.450000	-0.402625	-125.358395	-13.930500	-29.162214	-13.930500	-29.162214	-0.392904	-118.877610
6.500000	-0.407896	-126.196124	-13.884189	-29.921608	-13.884189	-29.921608	-0.398073	-119.670914
6.550000	-0.413232	-127.033035	-13.837989	-30.679852	-13.837989	-30.679852	-0.403307	-120.463188
6.600000	-0.418635	-127.869175	-13.791887	-31.437010	-13.791887	-31.437010	-0.408609	-121.254471
6.650000	-0.424107	-128.704594	-13.745869	-32.193146	-13.745869	-32.193146	-0.413979	-122.044801
6.700000	-0.429648	-129.539340	-13.699921	-32.948325	-13.699921	-32.948325	-0.419419	-122.834217
6.750000	-0.435261	-130.373462	-13.654032	-33.702616	-13.654032	-33.702616	-0.424929	-123.622760
6.800000	-0.440945	-131.207011	-13.608188	-34.456089	-13.608188	-34.456089	-0.430513	-124.410467
6.850000	-0.446703	-132.040037	-13.562377	-35.208814	-13.562377	-35.208814	-0.436170	-125.197380
6.900000	-0.452537	-132.872589	-13.516587	-35.960864	-13.516587	-35.960864	-0.441903	-125.983539
6.950000	-0.458446	-133.704719	-13.470807	-36.712315	-13.470807	-36.712315	-0.447713	-126.768984
7.000000	-0.464434	-134.536478	-13.425026	-37.463242	-13.425026	-37.463242	-0.453601	-127.553756
7.050000	-0.470501	-135.367917	-13.379233	-38.213724	-13.379233	-38.213724	-0.459569	-128.337895
7.100000	-0.476648	-136.199089	-13.333418	-38.963841	-13.333418	-38.963841	-0.465618	-129.121445
7.150000	-0.482878	-137.030044	-13.287572	-39.713672	-13.287572	-39.713672	-0.471750	-129.904445
7.200000	-0.489191	-137.860837	-13.241685	-40.463300	-13.241685	-40.463300	-0.477966	-130.686938
7.250000	-0.495589	-138.691519	-13.195749	-41.212808	-13.195749	-41.212808	-0.484269	-131.468966
7.300000	-0.502074	-139.522145	-13.149756	-41.962279	-13.149756	-41.962279	-0.490658	-132.250572
7.350000	-0.508647	-140.352768	-13.103699	-42.711799	-13.103699	-42.711799	-0.497137	-133.031798
7.400000	-0.515309	-141.183441	-13.057570	-43.461451	-13.057570	-43.461451	-0.503706	-133.812688
7.450000	-0.522063	-142.014220	-13.011363	-44.211320	-13.011363	-44.211320	-0.510368	-134.593284
7.500000	-0.528909	-142.845160	-12.965073	-44.961491	-12.965073	-44.961491	-0.517123	-135.373631
7.550000	-0.535853	-143.676326	-12.918680	-45.712068	-12.918680	-45.712068	-0.523978	-136.153765
7.600000	-0.542893	-144.507769	-12.872193	-46.463120	-12.872193	-46.463120	-0.530930	-136.933742
7.650000	-0.550031	-145.339544	-12.825608	-47.214729	-12.825608	-47.214729	-0.537982	-137.713606
7.700000	-0.557267	-146.171707	-12.778922	-47.966976	-12.778922	-47.966976	-0.545133	-138.493402
7.750000	-0.564605	-147.004315	-12.732132	-48.719937	-12.732132	-48.719937	-0.552388	-139.273176
7.800000	-0.572045	-147.837426	-12.685235	-49.473689	-12.685235	-49.473689	-0.559746	-140.052971
7.850000	-0.579588	-148.671097	-12.638229	-50.228307	-12.638229	-50.228307	-0.567210	-140.832835
7.900000	-0.587238	-149.505385	-12.591112	-50.983860	-12.591112	-50.983860	-0.574782	-141.612813
7.950000	-0.594994	-150.340350	-12.543882	-51.740419	-12.543882	-51.740419	-0.582463	-142.392952
8.000000	-0.602860	-151.176051	-12.496538	-52.498049	-12.496538	-52.498049	-0.590255	-143.173298
8.050000	-0.610836	-152.012545	-12.449078	-53.256815	-12.449078	-53.256815	-0.598161	-143.953898
8.100000	-0.618925	-152.849894	-12.401501	-54.016779	-12.401501	-54.016779	-0.606181	-144.734799
8.150000	-0.627127	-153.688156	-12.353806	-54.777998	-12.353806	-54.777998	-0.614318	-145.516050
8.200000	-0.635446	-154.527393	-12.305990	-55.540531	-12.305990	-55.540531	-0.622573	-146.297697
8.250000	-0.643882	-155.367666	-12.258054	-56.304434	-12.258054	-56.304434	-0.630949	-147.079790
8.300000	-0.652437	-156.209036	-12.209995	-57.069758	-12.209995	-57.069758	-0.639448	-147.862376
8.350000	-0.661114	-157.051564	-12.161811	-57.836558	-12.161811	-57.836558	-0.648070	-148.645505
8.400000	-0.669913	-157.895314	-12.113500	-58.604884	-12.113500	-58.604884	-0.656819	-149.429227
8.450000	-0.678838	-158.740347	-12.065061	-59.374788	-12.065061	-59.374788	-0.665696	-150.213589
8.500000	-0.687888	-159.586727	-12.016490	-60.146320	-12.016490	-60.146320	-0.674703	-150.998644
8.550000	-0.697067	-160.434518	-11.967785	-60.919532	-11.967785	-60.919532	-0.683842	-151.784440
8.600000	-0.706376	-161.283783	-11.918943	-61.694475	-11.918943	-61.694475	-0.693116	-152.571029
8.650000	-0.715817	-162.134588	-11.869961	-62.471202	-11.869961	-62.471202	-0.702525	-153.358462
8.700000	-0.725392	-162.986998	-11.820835	-63.249768	-11.820835	-63.249768	-0.712073	-154.146789
8.750000	-0.735103	-163.841078	-11.771561	-64.030226	-11.771561	-64.030226	-0.721762	-154.936064
8.800000	-0.744957	-164.696973	-11.722118	-64.812724	-11.722118	-64.812724	-0.731598	-155.726384
8.850000	-0.754950	-165.554676	-11.672518	-65.597239	-11.672518	-65.597239	-0.741579	-156.517760
8.900000	-0.765085	-166.414256	-11.622759	-66.383833	-11.622759	-66.383833	-0.751707	-157.310246
8.950000	-0.775363	-167.275780	-11.572835	-67.172573	-11.572835	-67.172573	-0.761984	-158.103895
9.000000	-0.785787	-168.139316	-11.522744	-67.963527	-11.522744	-67.963527	-0.772412	-158.898761
9.050000	-0.796358	-169.004932	-11.472480	-68.756766	-11.472480	-68.756766	-0.782994	-159.694899
9.100000	-0.807078	-169.872699	-11.422039	-69.552364	-11.422039	-69.552364	-0.793731	-160.492362
9.150000	-0.817949	-170.742685	-11.371418	-70.350399	-11.371418	-70.350399	-0.804626	-161.291206
9.200000	-0.828973	-171.614962	-11.320612	-71.150953	-11.320612	-71.150953	-0.815681	-162.091488
9.250000	-0.840152	-172.489599	-11.269618	-71.954110	-11.269618	-71.954110	-0.826899	-162.893261
9.300000	-0.851489	-173.366669	-11.218432	-72.759956	-11.218432	-72.759956	-0.838281	-163.696584
9.350000	-0.862983	-174.246243	-11.167051	-73.568583	-11.167051	-73.568583	-0.849830	-164.501514
9.400000	-0.874639	-175.128394	-11.115472	-74.380086	-11.115472	-74.380086	-0.861548	-165.308106
9.450000	-0.886458	-176.013195	-11.063692	-75.194560	-11.063692	-75.194560	-0.873438	-166.116420
9.500000	-0.898441	-176.900719	-11.011709	-76.012107	-11.011709	-76.012107	-0.885502	-166.926514
9.550000	-0.910591	-177.791041	-10.959521	-76.832830	-10.959521	-76.832830	-0.897742	-167.738446
9.600000	-0.922909	-178.684234	-10.907126	-77.656836	-10.907126	-77.656836	-0.910161	-168.552275
9.650000	-0.935399	-179.580375	-10.854524	-78.484234	-10.854524	-78.484234	-0.922761	-169.368063
9.700000	-0.948060	179.520461	-10.801713	-79.315137	-10.801713	-79.315137	-0.935545	-170.185868
9.750000	-0.960896	178.618198	-10.748694	-80.149661	-10.748694	-80.149661	-0.948515	-171.005751
9.800000	-0.973909	177.712759	-10.695466	-80.987923	-10.695466	-80.987923	-0.961674	-171.827775
9.850000	-0.987100	176.804066	-10.642031	-81.830044	-10.642031	-81.830044	-0.975024	-172.652000
9.900000	-1.000471	175.892042	-10.588389	-82.676149	-10.588389	-82.676149	-0.988567	-173.478489
9.950000	-1.014024	174.976608	-10.534544	-83.526363	-10.534544	-83.526363	-1.002306	-174.307305
10.000000	-1.027761	174.057684	-10.480497	-84.380815	-10.480497	-84.380815	-1.016244	-175.138510
