! freq	dB(S11)	phase(S11)	dB(S12)	phase(S12)	
!     	dB(S21)	phase(S21)	dB(S22)	phase(S22)	
!S-par simulation data
#  GHz  S  DB  R 50
0.000000	-94.603633	0.000000	-0.000162	0.000000	-0.000162	0.000000	-94.603634	0.000000
0.050000	-52.934552	-90.450012	-0.000275	-0.834114	-0.000275	-0.834114	-52.935027	-90.449971
0.100000	-46.913283	-91.612098	-0.000610	-1.668038	-0.000610	-1.668038	-46.913735	-91.612021
0.150000	-43.390278	-92.609859	-0.001157	-2.501597	-0.001157	-2.501597	-43.390694	-92.609674
0.200000	-40.890296	-93.560650	-0.001900	-3.334644	-0.001900	-3.334644	-40.890670	-93.560278
0.250000	-38.951231	-94.486046	-0.002830	-4.167014	-0.002830	-4.167014	-38.951557	-94.485401
0.300000	-37.367440	-95.396000	-0.003911	-4.998678	-0.003911	-4.998678	-37.367720	-95.395013
0.350000	-36.029304	-96.293310	-0.005128	-5.829553	-0.005128	-5.829553	-36.029541	-96.291920
0.400000	-34.871445	-97.180512	-0.006461	-6.659610	-0.006461	-6.659610	-34.871643	-97.178671
0.450000	-33.851706	-98.059525	-0.007888	-7.488848	-0.007888	-7.488848	-33.851870	-98.057201
0.500000	-32.941296	-98.931915	-0.009392	-8.317288	-0.009392	-8.317288	-32.941430	-98.929086
0.550000	-32.119658	-99.798975	-0.010958	-9.144966	-0.010958	-9.144966	-32.119767	-99.795627
0.600000	-31.371595	-100.661764	-0.012572	-9.971931	-0.012572	-9.971931	-31.371684	-100.657892
0.650000	-30.685547	-101.521141	-0.014224	-10.798236	-0.014224	-10.798236	-30.685619	-101.516745
0.700000	-30.052513	-102.377792	-0.015904	-11.623940	-0.015904	-11.623940	-30.052569	-102.372872
0.750000	-29.465342	-103.232254	-0.017607	-12.449100	-0.017607	-12.449100	-29.465386	-103.226813
0.800000	-28.918261	-104.084944	-0.019327	-13.273772	-0.019327	-13.273772	-28.918295	-104.078988
0.850000	-28.406540	-104.936182	-0.021062	-14.098007	-0.021062	-14.098007	-28.406565	-104.929715
0.900000	-27.926256	-105.786211	-0.022810	-14.921853	-0.022810	-14.921853	-27.926273	-105.779237
0.950000	-27.474117	-106.635214	-0.024570	-15.745354	-0.024570	-15.745354	-27.474127	-106.627737
1.000000	-27.047337	-107.483324	-0.026340	-16.568547	-0.026340	-16.568547	-27.047341	-107.475349
1.050000	-26.643534	-108.330643	-0.028121	-17.391466	-0.028121	-17.391466	-26.643533	-108.322173
1.100000	-26.260659	-109.177243	-0.029914	-18.214139	-0.029914	-18.214139	-26.260653	-109.168281
1.150000	-25.896933	-110.023176	-0.031719	-19.036594	-0.031719	-19.036594	-25.896922	-110.013725
1.200000	-25.550806	-110.868481	-0.033536	-19.858850	-0.033536	-19.858850	-25.550791	-110.858541
1.250000	-25.220915	-111.713183	-0.035367	-20.680927	-0.035367	-20.680927	-25.220896	-111.702757
1.300000	-24.906192	-112.557279	-0.037212	-21.502834	-0.037212	-21.502834	-24.906170	-112.546367
1.350000	-24.605436	-113.400807	-0.039073	-22.324591	-0.039073	-22.324591	-24.605411	-113.389410
1.400000	-24.317699	-114.243779	-0.040949	-23.146211	-0.040949	-23.146211	-24.317670	-114.231897
1.450000	-24.042129	-115.086206	-0.042841	-23.967702	-0.042841	-23.967702	-24.042097	-115.073837
1.500000	-23.777963	-115.928096	-0.044749	-24.789074	-0.044749	-24.789074	-23.777929	-115.915240
1.550000	-23.524514	-116.769460	-0.046674	-25.610334	-0.046674	-25.610334	-23.524477	-116.756115
1.600000	-23.281158	-117.610307	-0.048615	-26.431488	-0.048615	-26.431488	-23.281118	-117.596472
1.650000	-23.047331	-118.450651	-0.050573	-27.252541	-0.050573	-27.252541	-23.047289	-118.436323
1.700000	-22.822518	-119.290507	-0.052548	-28.073500	-0.052548	-28.073500	-22.822475	-119.275683
1.750000	-22.606252	-120.129889	-0.054540	-28.894369	-0.054540	-28.894369	-22.606206	-120.114567
1.800000	-22.398101	-120.968817	-0.056547	-29.715153	-0.056547	-29.715153	-22.398054	-120.952992
1.850000	-22.197675	-121.807311	-0.058571	-30.535856	-0.058571	-30.535856	-22.197626	-121.790981
1.900000	-22.004609	-122.645395	-0.060610	-31.356483	-0.060610	-31.356483	-22.004560	-122.628554
1.950000	-21.818573	-123.483093	-0.062664	-32.177038	-0.062664	-32.177038	-21.818522	-123.465738
2.000000	-21.639258	-124.320434	-0.064733	-32.997525	-0.064733	-32.997525	-21.639206	-124.302560
2.050000	-21.466382	-125.157447	-0.066815	-33.817950	-0.066815	-33.817950	-21.466329	-125.139048
2.100000	-21.299680	-125.994164	-0.068910	-34.638317	-0.068910	-34.638317	-21.299627	-125.975235
2.150000	-21.138910	-126.830621	-0.071017	-35.458632	-0.071017	-35.458632	-21.138857	-126.811156
2.200000	-20.983846	-127.666853	-0.073136	-36.278898	-0.073136	-36.278898	-20.983792	-127.646845
2.250000	-20.834278	-128.502898	-0.075265	-37.099122	-0.075265	-37.099122	-20.834224	-128.482341
2.300000	-20.690010	-129.338797	-0.077404	-37.919309	-0.077404	-37.919309	-20.689956	-129.317684
2.350000	-20.550859	-130.174592	-0.079551	-38.739466	-0.079551	-38.739466	-20.550806	-130.152915
2.400000	-20.416658	-131.010326	-0.081707	-39.559598	-0.081707	-39.559598	-20.416605	-130.988078
2.450000	-20.287246	-131.846043	-0.083870	-40.379712	-0.083870	-40.379712	-20.287194	-131.823216
2.500000	-20.162476	-132.681791	-0.086039	-41.199815	-0.086039	-41.199815	-20.162425	-132.658376
2.550000	-20.042332	-133.517623	-0.088212	-42.019914	-0.088212	-42.019914	-20.042281	-133.493610
2.600000	-19.926562	-134.353585	-0.090390	-42.840018	-0.090390	-42.840018	-19.926513	-134.328966
2.650000	-19.815046	-135.189729	-0.092572	-43.660134	-0.092572	-43.660134	-19.814998	-135.164494
2.700000	-19.707672	-136.026105	-0.094755	-44.480271	-0.094755	-44.480271	-19.707626	-136.000244
2.750000	-19.604334	-136.862764	-0.096939	-45.300436	-0.096939	-45.300436	-19.604289	-136.836266
2.800000	-19.504933	-137.699759	-0.099124	-46.120638	-0.099124	-46.120638	-19.504890	-137.672614
2.850000	-19.409377	-138.537143	-0.101308	-46.940888	-0.101308	-46.940888	-19.409336	-138.509339
2.900000	-19.317580	-139.374968	-0.103491	-47.761193	-0.103491	-47.761193	-19.317541	-139.346494
2.950000	-19.229461	-140.213289	-0.105671	-48.581565	-0.105671	-48.581565	-19.229425	-140.184133
3.000000	-19.144946	-141.052159	-0.107848	-49.402011	-0.107848	-49.402011	-19.144911	-141.022310
3.050000	-19.063962	-141.891634	-0.110021	-50.222544	-0.110021	-50.222544	-19.063930	-141.861077
3.100000	-18.986446	-142.731766	-0.112190	-51.043173	-0.112190	-51.043173	-18.986417	-142.700489
3.150000	-18.912336	-143.572611	-0.114352	-51.863910	-0.114352	-51.863910	-18.912309	-143.540600
3.200000	-18.841575	-144.414222	-0.116508	-52.684764	-0.116508	-52.684764	-18.841550	-144.381464
3.250000	-18.774109	-145.256655	-0.118658	-53.505748	-0.118658	-53.505748	-18.774088	-145.223134
3.300000	-18.709891	-146.099964	-0.120799	-54.326874	-0.120799	-54.326874	-18.709873	-146.065665
3.350000	-18.648874	-146.944202	-0.122932	-55.148151	-0.122932	-55.148151	-18.648859	-146.909110
3.400000	-18.591017	-147.789424	-0.125057	-55.969594	-0.125057	-55.969594	-18.591005	-147.753523
3.450000	-18.536281	-148.635683	-0.127171	-56.791213	-0.127171	-56.791213	-18.536272	-148.598957
3.500000	-18.484629	-149.483034	-0.129276	-57.613022	-0.129276	-57.613022	-18.484624	-149.445465
3.550000	-18.436031	-150.331529	-0.131370	-58.435032	-0.131370	-58.435032	-18.436029	-150.293100
3.600000	-18.390455	-151.181221	-0.133453	-59.257256	-0.133453	-59.257256	-18.390457	-151.141915
3.650000	-18.347876	-152.032165	-0.135525	-60.079708	-0.135525	-60.079708	-18.347881	-151.991961
3.700000	-18.308268	-152.884411	-0.137586	-60.902401	-0.137586	-60.902401	-18.308278	-152.843292
3.750000	-18.271611	-153.738015	-0.139634	-61.725347	-0.139634	-61.725347	-18.271624	-153.695959
3.800000	-18.238006	-154.593090	-0.141670	-62.548572	-0.141670	-62.548572	-18.238024	-154.550077
3.850000	-18.207316	-155.449633	-0.143693	-63.372079	-0.143693	-63.372079	-18.207339	-155.405640
3.900000	-18.179527	-156.307694	-0.145704	-64.195880	-0.145704	-64.195880	-18.179554	-156.262700
3.950000	-18.154626	-157.167328	-0.147702	-65.019991	-0.147702	-65.019991	-18.154658	-157.121309
4.000000	-18.132603	-158.028587	-0.149688	-65.844424	-0.149688	-65.844424	-18.132641	-157.981519
4.050000	-18.113452	-158.891524	-0.151660	-66.669194	-0.151660	-66.669194	-18.113495	-158.843384
4.100000	-18.097165	-159.756194	-0.153621	-67.494314	-0.153621	-67.494314	-18.097214	-159.706955
4.150000	-18.083740	-160.622651	-0.155569	-68.319798	-0.155569	-68.319798	-18.083795	-160.572287
4.200000	-18.073175	-161.490951	-0.157504	-69.145661	-0.157504	-69.145661	-18.073237	-161.439435
4.250000	-18.065470	-162.361150	-0.159428	-69.971915	-0.159428	-69.971915	-18.065539	-162.308452
4.300000	-18.060628	-163.233305	-0.161340	-70.798576	-0.161340	-70.798576	-18.060704	-163.179396
4.350000	-18.058654	-164.107475	-0.163240	-71.625658	-0.163240	-71.625658	-18.058737	-164.052324
4.400000	-18.059552	-164.983719	-0.165129	-72.453173	-0.165129	-72.453173	-18.059644	-164.927295
4.450000	-18.063333	-165.862100	-0.167008	-73.281137	-0.167008	-73.281137	-18.063434	-165.804369
4.500000	-18.070006	-166.742681	-0.168877	-74.109564	-0.168877	-74.109564	-18.070116	-166.683608
4.550000	-18.079583	-167.625528	-0.170736	-74.938466	-0.170736	-74.938466	-18.079703	-167.565077
4.600000	-18.092079	-168.510710	-0.172586	-75.767859	-0.172586	-75.767859	-18.092210	-168.448843
4.650000	-18.107509	-169.398297	-0.174428	-76.597756	-0.174428	-76.597756	-18.107652	-169.334975
4.700000	-18.125893	-170.288363	-0.176262	-77.428170	-0.176262	-77.428170	-18.126048	-170.223546
4.750000	-18.147250	-171.180986	-0.178089	-78.259116	-0.178089	-78.259116	-18.147419	-171.114630
4.800000	-18.171603	-172.076247	-0.179911	-79.090607	-0.179911	-79.090607	-18.171786	-172.008308
4.850000	-18.198977	-172.974231	-0.181727	-79.922657	-0.181727	-79.922657	-18.199175	-172.904663
4.900000	-18.229398	-173.875028	-0.183539	-80.755277	-0.183539	-80.755277	-18.229612	-173.803781
4.950000	-18.262895	-174.778732	-0.185348	-81.588483	-0.185348	-81.588483	-18.263126	-174.705755
5.000000	-18.299500	-175.685443	-0.187154	-82.422287	-0.187154	-82.422287	-18.299750	-175.610684
5.050000	-18.339376	-176.595407	-0.188960	-83.256728	-0.188960	-83.256728	-18.339647	-176.518807
5.100000	-18.382431	-177.508606	-0.190765	-84.091795	-0.190765	-84.091795	-18.382724	-177.430107
5.150000	-18.428705	-178.425161	-0.192572	-84.927498	-0.192572	-84.927498	-18.429020	-178.344701
5.200000	-18.478237	-179.345199	-0.194381	-85.763850	-0.194381	-85.763850	-18.478578	-179.262714
5.250000	-18.531075	179.731144	-0.196195	-86.600864	-0.196195	-86.600864	-18.531442	179.815722
5.300000	-18.587264	178.803725	-0.198013	-87.438551	-0.198013	-87.438551	-18.587661	178.890466
5.350000	-18.646857	177.872387	-0.199838	-88.276923	-0.199838	-88.276923	-18.647284	177.961367
5.400000	-18.709906	176.936968	-0.201671	-89.115991	-0.201671	-89.115991	-18.710367	177.028264
5.450000	-18.776471	175.997290	-0.203514	-89.955766	-0.203514	-89.955766	-18.776967	176.090984
5.500000	-18.846611	175.053165	-0.205367	-90.796260	-0.205367	-90.796260	-18.847146	175.149344
5.550000	-18.920394	174.104391	-0.207233	-91.637482	-0.207233	-91.637482	-18.920970	174.203146
5.600000	-18.997887	173.150752	-0.209113	-92.479443	-0.209113	-92.479443	-18.998507	173.252178
5.650000	-19.079164	172.192016	-0.211009	-93.322154	-0.211009	-93.322154	-19.079833	172.296214
5.700000	-19.164305	171.227933	-0.212923	-94.165622	-0.212923	-94.165622	-19.165025	171.335010
5.750000	-19.253392	170.258236	-0.214855	-95.009859	-0.214855	-95.009859	-19.254167	170.368304
5.800000	-19.346513	169.282637	-0.216809	-95.854873	-0.216809	-95.854873	-19.347349	169.395815
5.850000	-19.443764	168.300826	-0.218786	-96.700672	-0.218786	-96.700672	-19.444664	168.417238
5.900000	-19.545244	167.312468	-0.220787	-97.547266	-0.220787	-97.547266	-19.546214	167.432248
5.950000	-19.651059	166.317204	-0.222814	-98.394661	-0.222814	-98.394661	-19.652104	166.440491
6.000000	-19.761323	165.314644	-0.224870	-99.242866	-0.224870	-99.242866	-19.762449	165.441587
6.050000	-19.876155	164.304368	-0.226957	-100.091888	-0.226957	-100.091888	-19.877370	164.435124
6.100000	-19.995685	163.285919	-0.229075	-100.941733	-0.229075	-100.941733	-19.996996	163.420656
6.150000	-20.120049	162.258806	-0.231228	-101.792409	-0.231228	-101.792409	-20.121463	162.397700
6.200000	-20.249393	161.222492	-0.233417	-102.643920	-0.233417	-102.643920	-20.250919	161.365732
6.250000	-20.383870	160.176395	-0.235645	-103.496273	-0.235645	-103.496273	-20.385519	160.324182
6.300000	-20.523785	159.119397	-0.237914	-104.349510	-0.237914	-104.349510	-20.525567	159.271954
6.350000	-20.669175	158.051224	-0.240226	-105.203599	-0.240226	-105.203599	-20.671104	158.208781
6.400000	-20.820232	156.971113	-0.242583	-106.058544	-0.242583	-106.058544	-20.822319	157.133913
6.450000	-20.977155	155.878226	-0.244987	-106.914349	-0.244987	-106.914349	-20.979416	156.046533
6.500000	-21.140160	154.771649	-0.247439	-107.771018	-0.247439	-107.771018	-21.142611	154.945742
6.550000	-21.309479	153.650372	-0.249943	-108.628552	-0.249943	-108.628552	-21.312139	153.830552
6.600000	-21.485357	152.513288	-0.252499	-109.486956	-0.252499	-109.486956	-21.488247	152.699877
6.650000	-21.668060	151.359172	-0.255111	-110.346230	-0.255111	-110.346230	-21.671202	151.552515
6.700000	-21.857873	150.186669	-0.257780	-111.206377	-0.257780	-111.206377	-21.861293	150.387140
6.750000	-22.055099	148.994277	-0.260509	-112.067397	-0.260509	-112.067397	-22.058827	149.202277
6.800000	-22.260066	147.780328	-0.263300	-112.929290	-0.263300	-112.929290	-22.264136	147.996290
6.850000	-22.473126	146.542959	-0.266154	-113.792058	-0.266154	-113.792058	-22.477575	146.767350
6.900000	-22.694659	145.280091	-0.269074	-114.655699	-0.269074	-114.655699	-22.699529	145.513415
6.950000	-22.925071	143.989389	-0.272063	-115.520212	-0.272063	-115.520212	-22.930412	144.232195
7.000000	-23.164802	142.668232	-0.275121	-116.385597	-0.275121	-116.385597	-23.170668	142.921112
7.050000	-23.414324	141.313658	-0.278252	-117.251850	-0.278252	-117.251850	-23.420780	141.577256
7.100000	-23.674146	139.922317	-0.281456	-118.118971	-0.281456	-118.118971	-23.681265	140.197333
7.150000	-23.944817	138.490404	-0.284738	-118.986956	-0.284738	-118.986956	-23.952684	138.777597
7.200000	-24.226927	137.013580	-0.288097	-119.855801	-0.288097	-119.855801	-24.235640	137.313778
7.250000	-24.521110	135.486882	-0.291537	-120.725503	-0.291537	-120.725503	-24.530783	135.800983
7.300000	-24.827957	133.907428	-0.295056	-121.596020	-0.295056	-121.596020	-24.838722	134.236362
7.350000	-25.148406	132.262579	-0.298663	-122.467432	-0.298663	-122.467432	-25.160422	132.607465
7.400000	-25.483107	130.547821	-0.302356	-123.339685	-0.302356	-123.339685	-25.496560	130.909813
7.450000	-25.832880	128.754265	-0.306138	-124.212775	-0.306138	-124.212775	-25.847987	129.134610
7.500000	-26.198581	126.871532	-0.310009	-125.086694	-0.310009	-125.086694	-26.215603	127.271573
7.550000	-26.581103	124.883734	-0.313975	-125.961464	-0.313975	-125.961464	-26.600356	125.304952
7.600000	-26.981284	122.779125	-0.318035	-126.837049	-0.318035	-126.837049	-27.003142	123.223037
7.650000	-27.399981	120.540452	-0.322190	-127.713442	-0.322190	-127.713442	-27.424894	121.008625
7.700000	-27.837973	118.147235	-0.326441	-128.590635	-0.326441	-128.590635	-27.866487	118.641243
7.750000	-28.295890	115.575115	-0.330791	-129.468618	-0.330791	-129.468618	-28.328666	116.096459
7.800000	-28.774097	112.795089	-0.335241	-130.347384	-0.335241	-130.347384	-28.811938	113.345070
7.850000	-29.272523	109.772675	-0.339792	-131.226921	-0.339792	-131.226921	-29.316404	110.352193
7.900000	-29.790412	106.467054	-0.344446	-132.107222	-0.344446	-132.107222	-29.841513	107.076299
7.950000	-30.325957	102.830366	-0.349204	-132.988274	-0.349204	-132.988274	-30.385694	103.468346
8.000000	-30.875793	98.807447	-0.354068	-133.870068	-0.354068	-133.870068	-30.945839	99.471308
8.050000	-31.434297	94.336574	-0.359038	-134.752593	-0.359038	-134.752593	-31.516579	95.020643
8.100000	-31.992710	89.352125	-0.364115	-135.635837	-0.364115	-135.635837	-32.089339	90.046664
8.150000	-32.538127	83.790481	-0.369301	-136.519788	-0.369301	-136.519788	-32.651239	84.480247
8.200000	-33.052606	77.600658	-0.374597	-137.404433	-0.374597	-137.404433	-33.184032	78.263620
8.250000	-33.512860	70.760593	-0.380004	-138.289762	-0.380004	-138.289762	-33.663611	71.367519
8.300000	-33.891317	63.297686	-0.385521	-139.175761	-0.385521	-139.175761	-34.060922	63.813672
8.350000	-34.159284	55.307939	-0.391151	-140.062416	-0.391151	-140.062416	-34.345186	55.696797
8.400000	-34.292303	46.963543	-0.396893	-140.949715	-0.396893	-140.949715	-34.489673	47.194838
8.450000	-34.276307	38.498654	-0.402749	-141.837644	-0.402749	-141.837644	-34.478587	38.555202
8.500000	-34.111827	30.171633	-0.408718	-142.726188	-0.408718	-142.726188	-34.311959	30.053949
8.550000	-33.813907	22.216229	-0.414801	-143.615335	-0.414801	-143.615335	-34.005720	21.941485
8.600000	-33.407713	14.802609	-0.420998	-144.505070	-0.420998	-144.505070	-33.586862	14.398859
8.650000	-32.922268	8.022654	-0.427310	-145.395378	-0.427310	-145.395378	-33.086448	7.521596
8.700000	-32.385102	1.898563	-0.433736	-146.286245	-0.433736	-146.286245	-32.533710	1.329879
8.750000	-31.819200	-3.596521	-0.440276	-147.177656	-0.440276	-147.177656	-31.952781	-4.208126
8.800000	-31.240516	-8.495195	-0.446935	-148.069618	-0.446935	-148.069618	-31.360241	-9.130144
8.850000	-30.663926	-12.890940	-0.453708	-148.962093	-0.453708	-148.962093	-30.771265	-13.535801
8.900000	-30.097540	-16.849492	-0.460595	-149.855066	-0.460595	-149.855066	-30.193985	-17.494885
8.950000	-29.546500	-20.431516	-0.467594	-150.748522	-0.467594	-150.748522	-29.633449	-21.071121
9.000000	-29.013837	-23.690690	-0.474706	-151.642446	-0.474706	-151.642446	-29.092544	-24.320411
9.050000	-28.501132	-26.673347	-0.481929	-152.536822	-0.481929	-152.536822	-28.572695	-27.290665
9.100000	-28.008995	-29.418905	-0.489263	-153.431636	-0.489263	-153.431636	-28.074360	-30.022396
9.150000	-27.537404	-31.960631	-0.496707	-154.326872	-0.496707	-154.326872	-27.597382	-32.549622
9.200000	-27.085937	-34.326497	-0.504260	-155.222516	-0.504260	-155.222516	-27.141219	-34.900819
9.250000	-26.653932	-36.539997	-0.511921	-156.118553	-0.511921	-156.118553	-26.705109	-37.099816
9.300000	-26.240593	-38.620883	-0.519687	-157.014968	-0.519687	-157.014968	-26.288167	-39.166579
9.350000	-25.845057	-40.585794	-0.527559	-157.911747	-0.527559	-157.911747	-25.889458	-41.117881
9.400000	-25.466441	-42.448786	-0.535534	-158.808875	-0.535534	-158.808875	-25.508038	-42.967851
9.450000	-25.103873	-44.221775	-0.543611	-159.706338	-0.543611	-159.706338	-25.142985	-44.728444
9.500000	-24.756507	-45.914892	-0.551788	-160.604123	-0.551788	-160.604123	-24.793408	-46.409803
9.550000	-24.423535	-47.536792	-0.560063	-161.502215	-0.560063	-161.502215	-24.458464	-48.020577
9.600000	-24.104189	-49.094887	-0.568434	-162.400602	-0.568434	-162.400602	-24.137354	-49.568162
9.650000	-23.797751	-50.595556	-0.576900	-163.299270	-0.576900	-163.299270	-23.829334	-51.058913
9.700000	-23.503544	-52.044303	-0.585457	-164.198207	-0.585457	-164.198207	-23.533705	-52.498308
9.750000	-23.220936	-53.445897	-0.594103	-165.097401	-0.594103	-165.097401	-23.249816	-53.891085
9.800000	-22.949340	-54.804482	-0.602837	-165.996839	-0.602837	-165.996839	-22.977064	-55.241359
9.850000	-22.688204	-56.123675	-0.611656	-166.896510	-0.611656	-166.896510	-22.714884	-56.552716
9.900000	-22.437017	-57.406636	-0.620556	-167.796403	-0.620556	-167.796403	-22.462751	-57.828288
9.950000	-22.195301	-58.656139	-0.629536	-168.696508	-0.629536	-168.696508	-22.220179	-59.070820
10.000000	-21.962610	-59.874625	-0.638592	-169.596815	-0.638592	-169.596815	-21.986713	-60.282726
