! freq	dB(S11)	phase(S11)	dB(S12)	phase(S12)	
!     	dB(S21)	phase(S21)	dB(S22)	phase(S22)	
!S-par simulation data
#  GHz  S  DB  R 50
0.000000	-0.000000	0.000000	-337.598826	0.000000	-337.598826	0.000000	-0.000000	0.000000
0.050000	-0.000106	-0.833957	-60.389705	87.935354	-60.389705	87.935354	-0.000119	-0.997831
0.100000	-0.000420	-1.667667	-54.501241	86.671578	-54.501241	86.671578	-0.000474	-1.995384
0.150000	-0.000930	-2.500900	-51.070983	85.831673	-51.070983	85.831673	-0.001052	-2.992401
0.200000	-0.001616	-3.333464	-48.627333	85.089673	-48.627333	85.089673	-0.001833	-3.988659
0.250000	-0.002468	-4.165141	-46.723373	84.342998	-46.723373	84.342998	-0.002807	-4.983898
0.300000	-0.003446	-4.995887	-45.162666	83.572092	-45.162666	83.572092	-0.003933	-5.978050
0.350000	-0.004533	-5.825581	-43.840442	82.776707	-43.840442	82.776707	-0.005192	-6.970957
0.400000	-0.005707	-6.654174	-42.693825	81.961116	-42.693825	81.961116	-0.006559	-7.962536
0.450000	-0.006945	-7.481643	-41.682020	81.129782	-41.682020	81.129782	-0.008010	-8.952735
0.500000	-0.008229	-8.307989	-40.777022	80.286375	-40.777022	80.286375	-0.009524	-9.941528
0.550000	-0.009544	-9.133227	-39.958760	79.433726	-39.958760	79.433726	-0.011082	-10.928909
0.600000	-0.010877	-9.957384	-39.212359	78.573988	-39.212359	78.573988	-0.012668	-11.914888
0.650000	-0.012217	-10.780491	-38.526484	77.708808	-38.526484	77.708808	-0.014269	-12.899482
0.700000	-0.013557	-11.602579	-37.892301	76.839454	-37.892301	76.839454	-0.015874	-13.882711
0.750000	-0.014893	-12.423679	-37.302791	75.966920	-37.302791	75.966920	-0.017477	-14.864600
0.800000	-0.016220	-13.243815	-36.752286	75.091994	-36.752286	75.091994	-0.019071	-15.845168
0.850000	-0.017536	-14.063010	-36.236141	74.215311	-36.236141	74.215311	-0.020652	-16.824433
0.900000	-0.018841	-14.881280	-35.750501	73.337391	-35.750501	73.337391	-0.022219	-17.802409
0.950000	-0.020135	-15.698634	-35.292136	72.458664	-35.292136	72.458664	-0.023769	-18.779102
1.000000	-0.021417	-16.515079	-34.858308	71.579492	-34.858308	71.579492	-0.025303	-19.754516
1.050000	-0.022688	-17.330615	-34.446676	70.700182	-34.446676	70.700182	-0.026821	-20.728648
1.100000	-0.023950	-18.145238	-34.055226	69.821001	-34.055226	69.821001	-0.028324	-21.701492
1.150000	-0.025203	-18.958942	-33.682209	68.942178	-33.682209	68.942178	-0.029813	-22.673036
1.200000	-0.026449	-19.771715	-33.326100	68.063916	-33.326100	68.063916	-0.031289	-23.643267
1.250000	-0.027689	-20.583545	-32.985557	67.186396	-32.985557	67.186396	-0.032753	-24.612166
1.300000	-0.028924	-21.394374	-32.659465	66.309824	-32.659465	66.309824	-0.034207	-25.579652
1.350000	-0.030155	-22.204226	-32.346702	65.434313	-32.346702	65.434313	-0.035653	-26.545760
1.400000	-0.031384	-23.013082	-32.046330	64.559994	-32.046330	64.559994	-0.037091	-27.510466
1.450000	-0.032611	-23.820923	-31.757509	63.686986	-31.757509	63.686986	-0.038524	-28.473744
1.500000	-0.033837	-24.627727	-31.479484	62.815401	-31.479484	62.815401	-0.039952	-29.435565
1.550000	-0.035063	-25.433475	-31.211572	61.945340	-31.211572	61.945340	-0.041376	-30.395903
1.600000	-0.036289	-26.238144	-30.953154	61.076900	-30.953154	61.076900	-0.042798	-31.354728
1.650000	-0.037517	-27.041712	-30.703669	60.210169	-30.703669	60.210169	-0.044219	-32.312013
1.700000	-0.038747	-27.844159	-30.462603	59.345232	-30.462603	59.345232	-0.045639	-33.267727
1.750000	-0.039978	-28.645462	-30.229488	58.482168	-30.229488	58.482168	-0.047060	-34.221844
1.800000	-0.041213	-29.445600	-30.003894	57.621050	-30.003894	57.621050	-0.048481	-35.174334
1.850000	-0.042450	-30.244550	-29.785425	56.761949	-29.785425	56.761949	-0.049904	-36.125169
1.900000	-0.043690	-31.042293	-29.573716	55.904932	-29.573716	55.904932	-0.051329	-37.074323
1.950000	-0.044935	-31.838807	-29.368431	55.050061	-29.368431	55.050061	-0.052757	-38.021767
2.000000	-0.046182	-32.634071	-29.169258	54.197398	-29.169258	54.197398	-0.054188	-38.967476
2.050000	-0.047434	-33.428066	-28.975906	53.347000	-28.975906	53.347000	-0.055622	-39.911425
2.100000	-0.048690	-34.220771	-28.788107	52.498920	-28.788107	52.498920	-0.057061	-40.853587
2.150000	-0.049951	-35.012167	-28.605608	51.653212	-28.605608	51.653212	-0.058504	-41.793940
2.200000	-0.051216	-35.802235	-28.428176	50.809924	-28.428176	50.809924	-0.059952	-42.732460
2.250000	-0.052486	-36.590956	-28.255591	49.969105	-28.255591	49.969105	-0.061404	-43.669124
2.300000	-0.053761	-37.378313	-28.087648	49.130799	-28.087648	49.130799	-0.062862	-44.603911
2.350000	-0.055041	-38.164288	-27.924153	48.295050	-27.924153	48.295050	-0.064326	-45.536800
2.400000	-0.056326	-38.948863	-27.764926	47.461898	-27.764926	47.461898	-0.065795	-46.467771
2.450000	-0.057617	-39.732022	-27.609796	46.631385	-27.609796	46.631385	-0.067271	-47.396806
2.500000	-0.058913	-40.513749	-27.458600	45.803546	-27.458600	45.803546	-0.068753	-48.323887
2.550000	-0.060216	-41.293964	-27.311241	44.978537	-27.311241	44.978537	-0.070242	-49.248909
2.600000	-0.061524	-42.072715	-27.167520	44.156277	-27.167520	44.156277	-0.071739	-50.171942
2.650000	-0.062839	-42.849986	-27.027301	43.336797	-27.027301	43.336797	-0.073242	-51.092970
2.700000	-0.064160	-43.625763	-26.890455	42.520129	-26.890455	42.520129	-0.074753	-52.011981
2.750000	-0.065488	-44.400034	-26.756860	41.706301	-26.756860	41.706301	-0.076272	-52.928959
2.800000	-0.066822	-45.172783	-26.626399	40.895343	-26.626399	40.895343	-0.077799	-53.843893
2.850000	-0.068164	-45.943999	-26.498961	40.087279	-26.498961	40.087279	-0.079334	-54.756771
2.900000	-0.069513	-46.713669	-26.374441	39.282136	-26.374441	39.282136	-0.080878	-55.667584
2.950000	-0.070869	-47.481782	-26.252739	38.479937	-26.252739	38.479937	-0.082432	-56.576320
3.000000	-0.072233	-48.248325	-26.133758	37.680704	-26.133758	37.680704	-0.083994	-57.482971
3.050000	-0.073605	-49.013289	-26.017407	36.884460	-26.017407	36.884460	-0.085567	-58.387530
3.100000	-0.074986	-49.776661	-25.903598	36.091223	-25.903598	36.091223	-0.087149	-59.289989
3.150000	-0.076375	-50.538433	-25.792247	35.301013	-25.792247	35.301013	-0.088742	-60.190342
3.200000	-0.077773	-51.298595	-25.683273	34.513847	-25.683273	34.513847	-0.090345	-61.088584
3.250000	-0.079180	-52.057138	-25.576600	33.729741	-25.576600	33.729741	-0.091960	-61.984710
3.300000	-0.080597	-52.814053	-25.472153	32.948711	-25.472153	32.948711	-0.093586	-62.878718
3.350000	-0.082023	-53.569332	-25.369861	32.170771	-25.369861	32.170771	-0.095224	-63.770603
3.400000	-0.083459	-54.322968	-25.269655	31.395934	-25.269655	31.395934	-0.096875	-64.660365
3.450000	-0.084906	-55.074952	-25.171470	30.624212	-25.171470	30.624212	-0.098538	-65.548002
3.500000	-0.086364	-55.825279	-25.075243	29.855616	-25.075243	29.855616	-0.100214	-66.433514
3.550000	-0.087833	-56.573942	-24.980911	29.090155	-24.980911	29.090155	-0.101904	-67.316902
3.600000	-0.089313	-57.320934	-24.888417	28.327839	-24.888417	28.327839	-0.103608	-68.198166
3.650000	-0.090805	-58.066252	-24.797702	27.568675	-24.797702	27.568675	-0.105327	-69.077310
3.700000	-0.092309	-58.809889	-24.708712	26.812670	-24.708712	26.812670	-0.107060	-69.954336
3.750000	-0.093826	-59.551840	-24.621394	26.059830	-24.621394	26.059830	-0.108809	-70.829248
3.800000	-0.095356	-60.292030	-24.535728	25.310298	-24.535728	25.310298	-0.110574	-71.701959
3.850000	-0.096899	-61.030526	-24.451630	24.563940	-24.451630	24.563940	-0.112356	-72.572567
3.900000	-0.098456	-61.767326	-24.369053	23.820758	-24.369053	23.820758	-0.114154	-73.441077
3.950000	-0.100028	-62.502428	-24.287949	23.080755	-24.287949	23.080755	-0.115970	-74.307497
4.000000	-0.101613	-63.235828	-24.208273	22.343930	-24.208273	22.343930	-0.117804	-75.171834
4.050000	-0.103214	-63.967525	-24.129980	21.610286	-24.129980	21.610286	-0.119655	-76.034098
4.100000	-0.104830	-64.697518	-24.053028	20.879819	-24.053028	20.879819	-0.121526	-76.894296
4.150000	-0.106461	-65.425805	-23.977376	20.152528	-23.977376	20.152528	-0.123416	-77.752439
4.200000	-0.108109	-66.152386	-23.902982	19.428411	-23.902982	19.428411	-0.125326	-78.608537
4.250000	-0.109773	-66.877262	-23.829807	18.707463	-23.829807	18.707463	-0.127256	-79.462603
4.300000	-0.111454	-67.600431	-23.757812	17.989680	-23.757812	17.989680	-0.129207	-80.314647
4.350000	-0.113153	-68.321895	-23.686961	17.275055	-23.686961	17.275055	-0.131179	-81.164683
4.400000	-0.114869	-69.041655	-23.617216	16.563582	-23.617216	16.563582	-0.133173	-82.012724
4.450000	-0.116603	-69.759712	-23.548542	15.855253	-23.548542	15.855253	-0.135189	-82.858784
4.500000	-0.118356	-70.476068	-23.480905	15.150060	-23.480905	15.150060	-0.137228	-83.702878
4.550000	-0.120128	-71.190726	-23.414269	14.447993	-23.414269	14.447993	-0.139291	-84.545021
4.600000	-0.121920	-71.903688	-23.348603	13.749041	-23.348603	13.749041	-0.141378	-85.385230
4.650000	-0.123732	-72.614958	-23.283873	13.053192	-23.283873	13.053192	-0.143489	-86.223521
4.700000	-0.125564	-73.324538	-23.220048	12.360434	-23.220048	12.360434	-0.145625	-87.059911
4.750000	-0.127416	-74.032433	-23.157097	11.670752	-23.157097	11.670752	-0.147786	-87.894419
4.800000	-0.129290	-74.738647	-23.094989	10.984132	-23.094989	10.984132	-0.149974	-88.727063
4.850000	-0.131186	-75.443184	-23.033695	10.300558	-23.033695	10.300558	-0.152188	-89.557863
4.900000	-0.133104	-76.146050	-22.973185	9.620013	-22.973185	9.620013	-0.154429	-90.386838
4.950000	-0.135045	-76.847250	-22.913430	8.942479	-22.913430	8.942479	-0.156698	-91.214008
5.000000	-0.137008	-77.546789	-22.854404	8.267936	-22.854404	8.267936	-0.158995	-92.039396
5.050000	-0.138997	-78.244602	-22.796090	7.596492	-22.796090	7.596492	-0.161322	-92.862947
5.100000	-0.141009	-78.940768	-22.738448	6.927995	-22.738448	6.927995	-0.163678	-93.684760
5.150000	-0.143046	-79.635294	-22.681451	6.262422	-22.681451	6.262422	-0.166064	-94.504860
5.200000	-0.145108	-80.328187	-22.625073	5.599748	-22.625073	5.599748	-0.168481	-95.323269
5.250000	-0.147196	-81.019454	-22.569289	4.939948	-22.569289	4.939948	-0.170928	-96.140011
5.300000	-0.149309	-81.709103	-22.514073	4.282996	-22.514073	4.282996	-0.173407	-96.955112
5.350000	-0.151449	-82.397143	-22.459401	3.628863	-22.459401	3.628863	-0.175917	-97.768596
5.400000	-0.153616	-83.083581	-22.405249	2.977519	-22.405249	2.977519	-0.178460	-98.580488
5.450000	-0.155820	-83.767879	-22.351640	2.329878	-22.351640	2.329878	-0.181048	-99.390285
5.500000	-0.158039	-84.451348	-22.298438	1.683664	-22.298438	1.683664	-0.183653	-100.199275
5.550000	-0.160293	-85.132908	-22.245704	1.040712	-22.245704	1.040712	-0.186300	-101.006439
5.600000	-0.162571	-85.813102	-22.193391	0.400088	-22.193391	0.400088	-0.188977	-101.812301
5.650000	-0.164880	-86.491682	-22.141477	-0.237821	-22.141477	-0.237821	-0.191691	-102.616660
5.700000	-0.167221	-87.168645	-22.089959	-0.873014	-22.089959	-0.873014	-0.194442	-103.419517
5.750000	-0.169588	-87.844283	-22.038785	-1.506018	-22.038785	-1.506018	-0.197225	-104.221175
5.800000	-0.171992	-88.518062	-21.987968	-2.135954	-21.987968	-2.135954	-0.200052	-105.021157
5.850000	-0.174419	-89.190798	-21.937455	-2.764201	-21.937455	-2.764201	-0.202905	-105.820224
5.900000	-0.176889	-89.861443	-21.887250	-3.389067	-21.887250	-3.389067	-0.205811	-106.617463
5.950000	-0.179377	-90.531319	-21.837323	-4.012716	-21.837323	-4.012716	-0.208737	-107.414050
6.000000	-0.181916	-91.198882	-21.787644	-4.632714	-21.787644	-4.632714	-0.211723	-108.208685
6.050000	-0.184467	-91.865942	-21.738229	-5.251936	-21.738229	-5.251936	-0.214724	-109.002909
6.100000	-0.187077	-92.530478	-21.688994	-5.867280	-21.688994	-5.867280	-0.217794	-109.795082
6.150000	-0.189693	-93.194768	-21.640020	-6.482255	-21.640020	-6.482255	-0.220871	-110.587062
6.200000	-0.192376	-93.856335	-21.591147	-7.093176	-21.591147	-7.093176	-0.224026	-111.376920
6.250000	-0.195059	-94.517902	-21.542547	-7.704097	-21.542547	-7.704097	-0.227183	-112.166779
6.300000	-0.197817	-95.176559	-21.493959	-8.310840	-21.493959	-8.310840	-0.230425	-112.954474
6.350000	-0.200576	-95.835216	-21.445642	-8.917583	-21.445642	-8.917583	-0.233669	-113.742169
6.400000	-0.203406	-96.491263	-21.397292	-9.520733	-21.397292	-9.520733	-0.236995	-114.528024
6.450000	-0.206242	-97.147072	-21.349183	-10.123557	-21.349183	-10.123557	-0.240330	-115.313711
6.500000	-0.209145	-97.800562	-21.301011	-10.723344	-21.301011	-10.723344	-0.243740	-116.097860
6.550000	-0.212061	-98.453588	-21.253040	-11.322523	-21.253040	-11.322523	-0.247167	-116.881701
6.600000	-0.215039	-99.104576	-21.204990	-11.919183	-21.204990	-11.919183	-0.250664	-117.664280
6.650000	-0.218038	-99.754885	-21.157090	-12.515005	-21.157090	-12.515005	-0.254186	-118.446438
6.700000	-0.221093	-100.403428	-21.109106	-13.108788	-21.109106	-13.108788	-0.257773	-119.227588
6.750000	-0.224177	-101.051088	-21.061213	-13.701553	-21.061213	-13.701553	-0.261392	-120.008233
6.800000	-0.227311	-101.697245	-21.013245	-14.292716	-21.013245	-14.292716	-0.265069	-120.788096
6.850000	-0.230482	-102.342328	-20.965299	-14.882737	-20.965299	-14.882737	-0.268788	-121.567401
6.900000	-0.233698	-102.986158	-20.917298	-15.471548	-20.917298	-15.471548	-0.272558	-122.346125
6.950000	-0.236959	-103.628737	-20.869243	-16.059150	-20.869243	-16.059150	-0.276379	-123.124268
7.000000	-0.240258	-104.270302	-20.821163	-16.645883	-20.821163	-16.645883	-0.280244	-123.902002
7.050000	-0.243611	-104.910450	-20.772945	-17.231400	-20.772945	-17.231400	-0.284169	-124.679165
7.100000	-0.246995	-105.549814	-20.724745	-17.816338	-20.724745	-17.816338	-0.288131	-125.456063
7.150000	-0.250443	-106.187608	-20.676315	-18.400116	-20.676315	-18.400116	-0.292163	-126.232431
7.200000	-0.253915	-106.824834	-20.627955	-18.983548	-20.627955	-18.983548	-0.296224	-127.008649
7.250000	-0.257460	-107.460354	-20.579268	-19.565938	-20.579268	-19.565938	-0.300365	-127.784415
7.300000	-0.261022	-108.095508	-20.530712	-20.148158	-20.530712	-20.148158	-0.304527	-128.560113
7.350000	-0.264666	-108.728834	-20.481726	-20.729519	-20.481726	-20.729519	-0.308780	-129.335472
7.400000	-0.268320	-109.361983	-20.432941	-21.310826	-20.432941	-21.310826	-0.313045	-130.110813
7.450000	-0.272067	-109.993196	-20.383618	-21.891521	-20.383618	-21.891521	-0.317413	-130.885964
7.500000	-0.275815	-110.624410	-20.334574	-22.472217	-20.334574	-22.472217	-0.321783	-131.661115
7.550000	-0.279667	-111.253595	-20.284880	-23.052613	-20.284880	-23.052613	-0.326267	-132.436263
7.600000	-0.283520	-111.882780	-20.235470	-23.633009	-20.235470	-23.633009	-0.330753	-133.211411
7.650000	-0.287470	-112.510184	-20.185457	-24.213465	-20.185457	-24.213465	-0.335347	-133.986747
7.700000	-0.291431	-113.137427	-20.135651	-24.793928	-20.135651	-24.793928	-0.339953	-134.762102
7.750000	-0.295483	-113.763123	-20.085298	-25.374751	-20.085298	-25.374751	-0.344659	-135.537805
7.800000	-0.299554	-114.388511	-20.035070	-25.955647	-20.035070	-25.955647	-0.349386	-136.313580
7.850000	-0.303708	-115.012574	-19.984359	-26.537139	-19.984359	-26.537139	-0.354206	-137.089833
7.900000	-0.307892	-115.636196	-19.933688	-27.118831	-19.933688	-27.118831	-0.359058	-137.866245
7.950000	-0.312153	-116.258700	-19.882606	-27.701294	-19.882606	-27.701294	-0.363993	-138.643233
8.000000	-0.316452	-116.880647	-19.831472	-28.284142	-19.831472	-28.284142	-0.368972	-139.420508
8.050000	-0.320821	-117.501670	-19.780007	-28.867870	-19.780007	-28.867870	-0.374025	-140.198420
8.100000	-0.325239	-118.122034	-19.728396	-29.452227	-19.728396	-29.452227	-0.379133	-140.976786
8.150000	-0.329717	-118.741654	-19.676538	-30.037511	-19.676538	-30.037511	-0.384307	-141.755815
8.200000	-0.334256	-119.360529	-19.624439	-30.623722	-19.624439	-30.623722	-0.389547	-142.535506
8.250000	-0.338847	-119.978824	-19.572181	-31.210847	-19.572181	-31.210847	-0.394844	-143.315848
8.300000	-0.343510	-120.596307	-19.519584	-31.799250	-19.519584	-31.799250	-0.400218	-144.097103
8.350000	-0.348216	-121.213358	-19.466923	-32.388493	-19.466923	-32.388493	-0.405639	-144.878961
8.400000	-0.353005	-121.829545	-19.413823	-32.979414	-19.413823	-32.979414	-0.411150	-145.662024
8.450000	-0.357828	-122.445434	-19.360756	-33.571043	-19.360756	-33.571043	-0.416698	-146.445602
8.500000	-0.362747	-123.060425	-19.307149	-34.164798	-19.307149	-34.164798	-0.422349	-147.230723
8.550000	-0.367690	-123.675234	-19.253676	-34.759075	-19.253676	-34.759075	-0.428026	-148.016230
8.600000	-0.372741	-124.289130	-19.199560	-35.355966	-19.199560	-35.355966	-0.433819	-148.803665
8.650000	-0.377806	-124.902944	-19.145682	-35.953143	-19.145682	-35.953143	-0.439627	-149.591314
8.700000	-0.382992	-125.515847	-19.091059	-36.553462	-19.091059	-36.553462	-0.445565	-150.381324
8.750000	-0.388181	-126.128751	-19.036778	-37.153781	-19.036778	-37.153781	-0.451506	-151.171334
8.800000	-0.393505	-126.740766	-18.981651	-37.757805	-18.981651	-37.757805	-0.457591	-151.964186
8.850000	-0.398833	-127.352780	-18.926872	-38.361830	-18.926872	-38.361830	-0.463680	-152.757037
8.900000	-0.404287	-127.964078	-18.871344	-38.969494	-18.871344	-38.969494	-0.469903	-153.552745
8.950000	-0.409755	-128.575310	-18.816069	-39.577489	-18.816069	-39.577489	-0.476142	-154.348712
9.000000	-0.415341	-129.185979	-18.760146	-40.189004	-18.760146	-40.189004	-0.482505	-155.147507
9.050000	-0.420953	-129.796536	-18.704383	-40.801223	-18.704383	-40.801223	-0.488897	-155.946869
9.100000	-0.426673	-130.406669	-18.648071	-41.416789	-18.648071	-41.416789	-0.495402	-156.748990
9.150000	-0.432432	-131.016660	-18.591823	-42.033472	-18.591823	-42.033472	-0.501949	-157.552032
9.200000	-0.438266	-131.626415	-18.535334	-42.652483	-18.535334	-42.652483	-0.508574	-158.357035
9.250000	-0.444183	-132.235927	-18.478531	-43.274159	-18.478531	-43.274159	-0.515287	-159.164307
9.300000	-0.450174	-132.845265	-18.421516	-43.898169	-18.421516	-43.898169	-0.522077	-159.973596
9.350000	-0.456238	-133.454455	-18.364292	-44.524561	-18.364292	-44.524561	-0.528944	-160.784974
9.400000	-0.462377	-134.063523	-18.306860	-45.153384	-18.306860	-45.153384	-0.535889	-161.598508
9.450000	-0.468591	-134.672495	-18.249222	-45.784685	-18.249222	-45.784685	-0.542911	-162.414271
9.500000	-0.474880	-135.281400	-18.191379	-46.418509	-18.191379	-46.418509	-0.550013	-163.232334
9.550000	-0.481246	-135.890262	-18.133333	-47.054903	-18.133333	-47.054903	-0.557194	-164.052769
9.600000	-0.487689	-136.499111	-18.075085	-47.693911	-18.075085	-47.693911	-0.564454	-164.875650
9.650000	-0.494210	-137.107973	-18.016637	-48.335578	-18.016637	-48.335578	-0.571795	-165.701049
9.700000	-0.500809	-137.716876	-17.957991	-48.979947	-17.957991	-48.979947	-0.579217	-166.529042
9.750000	-0.507488	-138.325848	-17.899148	-49.627061	-17.899148	-49.627061	-0.586720	-167.359704
9.800000	-0.514246	-138.934917	-17.840109	-50.276964	-17.840109	-50.276964	-0.594305	-168.193112
9.850000	-0.521085	-139.544111	-17.780875	-50.929699	-17.780875	-50.929699	-0.601971	-169.029342
9.900000	-0.528005	-140.153458	-17.721448	-51.585307	-17.721448	-51.585307	-0.609721	-169.868471
9.950000	-0.535008	-140.762989	-17.661828	-52.243833	-17.661828	-52.243833	-0.617553	-170.710580
10.000000	-0.542092	-141.372732	-17.602017	-52.905318	-17.602017	-52.905318	-0.625469	-171.555746
