! freq	dB(S11)	phase(S11)	dB(S12)	phase(S12)	
!     	dB(S21)	phase(S21)	dB(S22)	phase(S22)	
!S-par simulation data
#  GHz  S  DB  R 50
0.000000	-0.000000	0.000000	-318.191920	0.000000	-318.191920	0.000000	-0.000000	0.000000
0.050000	-0.000101	-0.813641	-74.065759	85.969611	-74.065759	85.969611	-0.000098	-0.775515
0.100000	-0.000401	-1.627040	-68.320225	85.992478	-68.320225	85.992478	-0.000387	-1.550794
0.150000	-0.000887	-2.439969	-64.885161	85.856041	-64.885161	85.856041	-0.000856	-2.325621
0.200000	-0.001541	-3.252243	-62.423930	85.475754	-62.423930	85.475754	-0.001485	-3.099815
0.250000	-0.002351	-4.063649	-60.507062	84.950801	-60.507062	84.950801	-0.002263	-3.873173
0.300000	-0.003278	-4.874145	-58.938606	84.352611	-58.938606	84.352611	-0.003154	-4.645660
0.350000	-0.004306	-5.683618	-57.612312	83.705766	-57.612312	83.705766	-0.004139	-5.417170
0.400000	-0.005411	-6.492022	-56.464226	83.027713	-56.464226	83.027713	-0.005196	-6.187663
0.450000	-0.006572	-7.299337	-55.452844	82.328734	-55.452844	82.328734	-0.006307	-6.957126
0.500000	-0.007772	-8.105569	-54.549707	81.615252	-54.549707	81.615252	-0.007452	-7.725568
0.550000	-0.008995	-8.910737	-53.734456	80.891487	-53.734456	80.891487	-0.008618	-8.493012
0.600000	-0.010228	-9.714870	-52.992027	80.160333	-52.992027	80.160333	-0.009792	-9.259489
0.650000	-0.011463	-10.518000	-52.310961	79.423850	-52.310961	79.423850	-0.010967	-10.025033
0.700000	-0.012691	-11.320161	-51.682338	78.683554	-51.682338	78.683554	-0.012135	-10.789679
0.750000	-0.013908	-12.121384	-51.099081	77.940596	-51.099081	77.940596	-0.013292	-11.553459
0.800000	-0.015112	-12.921697	-50.555480	77.195871	-50.555480	77.195871	-0.014435	-12.316401
0.850000	-0.016299	-13.721122	-50.046861	76.450094	-50.046861	76.450094	-0.015563	-13.078526
0.900000	-0.017469	-14.519677	-49.569349	75.703849	-49.569349	75.703849	-0.016675	-13.839853
0.950000	-0.018623	-15.317372	-49.119698	74.957626	-49.119698	74.957626	-0.017771	-14.600392
1.000000	-0.019759	-16.114215	-48.695160	74.211839	-48.695160	74.211839	-0.018851	-15.360152
1.050000	-0.020880	-16.910207	-48.293387	73.466849	-48.293387	73.466849	-0.019917	-16.119134
1.100000	-0.021987	-17.705346	-47.912361	72.722974	-47.912361	72.722974	-0.020970	-16.877336
1.150000	-0.023080	-18.499627	-47.550329	71.980501	-47.550329	71.980501	-0.022011	-17.634755
1.200000	-0.024161	-19.293040	-47.205764	71.239688	-47.205764	71.239688	-0.023040	-18.391381
1.250000	-0.025232	-20.085574	-46.877324	70.500776	-46.877324	70.500776	-0.024060	-19.147205
1.300000	-0.026292	-20.877175	-46.563959	69.764088	-46.563959	69.764088	-0.025071	-19.902178
1.350000	-0.027344	-21.667868	-46.264484	69.029752	-46.264484	69.029752	-0.026074	-20.656321
1.400000	-0.028389	-22.457633	-45.977962	68.297965	-45.977962	68.297965	-0.027071	-21.409618
1.450000	-0.029428	-23.246454	-45.703555	67.568919	-45.703555	67.568919	-0.028062	-22.162052
1.500000	-0.030461	-24.034311	-45.440508	66.842797	-45.440508	66.842797	-0.029048	-22.913607
1.550000	-0.031489	-24.821186	-45.188142	66.119779	-45.188142	66.119779	-0.030031	-23.664265
1.600000	-0.032514	-25.607057	-44.945840	65.400040	-44.945840	65.400040	-0.031010	-24.414007
1.650000	-0.033536	-26.391906	-44.713043	64.683750	-44.713043	64.683750	-0.031987	-25.162816
1.700000	-0.034555	-27.175340	-44.490284	63.972418	-44.490284	63.972418	-0.032961	-25.910333
1.750000	-0.035573	-27.958222	-44.274602	63.263033	-44.274602	63.263033	-0.033934	-26.657346
1.800000	-0.036589	-28.739776	-44.067695	62.558541	-44.067695	62.558541	-0.034906	-27.403146
1.850000	-0.037605	-29.520380	-43.868081	61.857545	-43.868081	61.857545	-0.035877	-28.148078
1.900000	-0.038620	-30.299802	-43.675966	61.161102	-43.675966	61.161102	-0.036848	-28.891931
1.950000	-0.039635	-31.078041	-43.490961	60.469213	-43.490961	60.469213	-0.037819	-29.634703
2.000000	-0.040650	-31.855260	-43.312301	59.781416	-43.312301	59.781416	-0.038790	-30.376543
2.050000	-0.041666	-32.631049	-43.140656	59.099348	-43.140656	59.099348	-0.039762	-31.117077
2.100000	-0.042683	-33.405995	-42.974303	58.420794	-42.974303	58.420794	-0.040735	-31.856840
2.150000	-0.043702	-34.179253	-42.814936	57.749267	-42.814936	57.749267	-0.041710	-32.595059
2.200000	-0.044722	-34.951858	-42.659895	57.080556	-42.659895	57.080556	-0.042685	-33.332682
2.250000	-0.045744	-35.722506	-42.511862	56.420294	-42.511862	56.420294	-0.043664	-34.068513
2.300000	-0.046768	-36.492706	-42.367264	55.762031	-42.367264	55.762031	-0.044643	-34.803936
2.350000	-0.047796	-37.260667	-42.229733	55.113765	-42.229733	55.113765	-0.045626	-35.537309
2.400000	-0.048825	-38.028399	-42.094815	54.466561	-42.094815	54.466561	-0.046610	-36.270472
2.450000	-0.049859	-38.793603	-41.967047	53.831036	-41.967047	53.831036	-0.047600	-37.001319
2.500000	-0.050894	-39.558806	-41.841131	53.195510	-41.841131	53.195510	-0.048589	-37.732167
2.550000	-0.051937	-40.321184	-41.722464	52.573479	-41.722464	52.573479	-0.049586	-38.460423
2.600000	-0.052979	-41.083561	-41.605396	51.951447	-41.605396	51.951447	-0.050583	-39.188680
2.650000	-0.054030	-41.843289	-41.494781	51.342488	-41.494781	51.342488	-0.051588	-39.914505
2.700000	-0.055082	-42.602775	-41.385996	50.734717	-41.385996	50.734717	-0.052594	-40.640109
2.750000	-0.056143	-43.359801	-41.282909	50.139480	-41.282909	50.139480	-0.053608	-41.363454
2.800000	-0.057206	-44.116336	-41.181892	49.546750	-41.181892	49.546750	-0.054624	-42.086346
2.850000	-0.058278	-44.870613	-41.085856	48.965894	-41.085856	48.965894	-0.055648	-42.807163
2.900000	-0.059352	-45.624137	-40.992131	48.388997	-40.992131	48.388997	-0.056675	-43.527289
2.950000	-0.060436	-46.375620	-40.902710	47.823193	-40.902710	47.823193	-0.057711	-44.245534
3.000000	-0.061525	-47.126081	-40.815836	47.262935	-40.815836	47.262935	-0.058751	-44.962840
3.050000	-0.062622	-47.874726	-40.732625	46.712862	-40.732625	46.712862	-0.059799	-45.678472
3.100000	-0.063725	-48.622074	-40.652188	46.170062	-40.652188	46.170062	-0.060853	-46.392908
3.150000	-0.064837	-49.367841	-40.574812	45.636408	-40.574812	45.636408	-0.061915	-47.105886
3.200000	-0.065958	-50.112029	-40.500422	45.111898	-40.500422	45.111898	-0.062985	-47.817406
3.250000	-0.067086	-50.854883	-40.428528	44.595359	-40.428528	44.595359	-0.064062	-48.527694
3.300000	-0.068224	-51.595868	-40.359813	44.089980	-40.359813	44.089980	-0.065149	-49.236254
3.350000	-0.069370	-52.335772	-40.293067	43.591261	-40.293067	43.591261	-0.066243	-49.943815
3.400000	-0.070528	-53.073516	-40.229669	43.105863	-40.229669	43.105863	-0.067349	-50.649376
3.450000	-0.071693	-53.810440	-40.167754	42.625674	-40.167754	42.625674	-0.068460	-51.354178
3.500000	-0.072873	-54.544907	-40.109327	42.161115	-40.109327	42.161115	-0.069586	-52.056703
3.550000	-0.074057	-55.278822	-40.051937	41.700171	-40.051937	41.700171	-0.070716	-52.758715
3.600000	-0.075261	-56.009980	-39.998140	41.257309	-39.998140	41.257309	-0.071864	-53.458168
3.650000	-0.076467	-56.740859	-39.944979	40.816326	-39.944979	40.816326	-0.073014	-54.157363
3.700000	-0.077696	-57.468681	-39.895478	40.396020	-39.895478	40.396020	-0.074186	-54.853715
3.750000	-0.078925	-58.196502	-39.846257	39.975715	-39.846257	39.975715	-0.075358	-55.550066
3.800000	-0.080180	-58.920962	-39.800720	39.578817	-39.800720	39.578817	-0.076554	-56.243288
3.850000	-0.081436	-59.645423	-39.755419	39.181919	-39.755419	39.181919	-0.077751	-56.936510
3.900000	-0.082718	-60.366784	-39.713246	38.807248	-39.713246	38.807248	-0.078973	-57.626841
3.950000	-0.084003	-61.087863	-39.671539	38.434597	-39.671539	38.434597	-0.080197	-58.316909
4.000000	-0.085312	-61.806109	-39.632440	38.082833	-39.632440	38.082833	-0.081444	-59.004330
4.050000	-0.086627	-62.523790	-39.593995	37.735246	-39.593995	37.735246	-0.082697	-59.691223
4.100000	-0.087966	-63.238911	-39.557676	37.407047	-39.557676	37.407047	-0.083972	-60.375719
4.150000	-0.089313	-63.953179	-39.522157	37.085311	-39.522157	37.085311	-0.085254	-61.059417
4.200000	-0.090683	-64.665166	-39.488322	36.781305	-39.488322	36.781305	-0.086558	-61.740976
4.250000	-0.092064	-65.376013	-39.455385	36.486163	-39.455385	36.486163	-0.087872	-62.421465
4.300000	-0.093465	-66.084859	-39.423734	36.206936	-39.423734	36.206936	-0.089206	-63.100074
4.350000	-0.094882	-66.792277	-39.393025	35.939077	-39.393025	35.939077	-0.090554	-63.777341
4.400000	-0.096317	-67.497979	-39.363253	35.685168	-39.363253	35.685168	-0.091919	-64.452992
4.450000	-0.097771	-68.201966	-39.334407	35.445208	-39.334407	35.445208	-0.093302	-65.127029
4.500000	-0.099242	-68.904523	-39.306199	35.217092	-39.306199	35.217092	-0.094701	-65.799716
4.550000	-0.100735	-69.605079	-39.278841	35.005557	-39.278841	35.005557	-0.096120	-66.470515
4.600000	-0.102242	-70.304493	-39.251878	34.803638	-39.251878	34.803638	-0.097553	-67.140234
4.650000	-0.103776	-71.001622	-39.225617	34.620948	-39.225617	34.620948	-0.099011	-67.807792
4.700000	-0.105321	-71.697896	-39.199570	34.445540	-39.199570	34.445540	-0.100480	-68.474540
4.750000	-0.106898	-72.391605	-39.174005	34.291981	-39.174005	34.291981	-0.101978	-69.138858
4.800000	-0.108482	-73.084746	-39.148538	34.143299	-39.148538	34.143299	-0.103484	-69.802636
4.850000	-0.110104	-73.775046	-39.123254	34.019004	-39.123254	34.019004	-0.105024	-70.463715
4.900000	-0.111729	-74.465063	-39.098020	33.897143	-39.098020	33.897143	-0.106568	-71.124525
4.950000	-0.113397	-75.151967	-39.072593	33.802065	-39.072593	33.802065	-0.108152	-71.782371
5.000000	-0.115065	-75.838871	-39.047240	33.706986	-39.047240	33.706986	-0.109735	-72.440217
5.050000	-0.116780	-76.522397	-39.021233	33.640874	-39.021233	33.640874	-0.111364	-73.094837
5.100000	-0.118496	-77.205922	-38.995303	33.574761	-38.995303	33.574761	-0.112993	-73.749458
5.150000	-0.120257	-77.886367	-38.968371	33.534760	-38.968371	33.534760	-0.114665	-74.401132
5.200000	-0.122023	-78.566533	-38.941424	33.497132	-38.941424	33.497132	-0.116341	-75.052539
5.250000	-0.123831	-79.243918	-38.913197	33.482630	-38.913197	33.482630	-0.118056	-75.701278
5.300000	-0.125648	-79.920747	-38.884790	33.472754	-38.884790	33.472754	-0.119780	-76.349483
5.350000	-0.127504	-80.595093	-38.854898	33.482933	-38.854898	33.482933	-0.121542	-76.995299
5.400000	-0.129374	-81.268612	-38.824586	33.499798	-38.824586	33.499798	-0.123316	-77.640319
5.450000	-0.131280	-81.939942	-38.792667	33.533625	-38.792667	33.533625	-0.125124	-78.283228
5.500000	-0.133205	-82.610177	-38.760013	33.575932	-38.760013	33.575932	-0.126950	-78.925082
5.550000	-0.135162	-83.278517	-38.725712	33.632145	-38.725712	33.632145	-0.128807	-79.565100
5.600000	-0.137143	-83.945501	-38.690289	33.698292	-38.690289	33.698292	-0.130686	-80.203807
5.650000	-0.139153	-84.610877	-38.653268	33.775403	-38.653268	33.775403	-0.132592	-80.840954
5.700000	-0.141192	-85.274645	-38.614668	33.863480	-38.614668	33.863480	-0.134526	-81.476538
5.750000	-0.143256	-85.937087	-38.574605	33.959772	-38.574605	33.959772	-0.136483	-82.110833
5.800000	-0.145355	-86.597674	-38.532448	34.067567	-38.532448	34.067567	-0.138473	-82.743321
5.850000	-0.147475	-87.257213	-38.489046	34.181102	-38.489046	34.181102	-0.140483	-83.374786
5.900000	-0.149635	-87.914658	-38.442982	34.306117	-38.442982	34.306117	-0.142531	-84.004205
5.950000	-0.151811	-88.571329	-38.395976	34.434746	-38.395976	34.434746	-0.144594	-84.632864
6.000000	-0.154034	-89.225674	-38.345695	34.574218	-38.345695	34.574218	-0.146702	-85.259245
6.050000	-0.156268	-89.879510	-38.294854	34.715601	-38.294854	34.715601	-0.148820	-85.885124
6.100000	-0.158556	-90.530799	-38.240093	34.866541	-38.240093	34.866541	-0.150989	-86.508497
6.150000	-0.160849	-91.181838	-38.185224	35.018171	-38.185224	35.018171	-0.153163	-87.131623
6.200000	-0.163203	-91.830118	-38.125774	35.177404	-38.125774	35.177404	-0.155395	-87.752024
6.250000	-0.165558	-92.478398	-38.066728	35.336637	-38.066728	35.336637	-0.157627	-88.372425
6.300000	-0.167979	-93.123717	-38.002437	35.500859	-38.002437	35.500859	-0.159922	-88.989890
6.350000	-0.170401	-93.769036	-37.938618	35.665081	-37.938618	35.665081	-0.162218	-89.607356
6.400000	-0.172886	-94.411687	-37.869887	35.830784	-37.869887	35.830784	-0.164574	-90.222165
6.450000	-0.175378	-95.054096	-37.801210	35.996622	-37.801210	35.996622	-0.166936	-90.836733
6.500000	-0.177928	-95.694124	-37.728041	36.160988	-37.728041	36.160988	-0.169354	-91.448919
6.550000	-0.180490	-96.333676	-37.654485	36.325059	-37.654485	36.325059	-0.171783	-92.060629
6.600000	-0.183106	-96.971127	-37.576927	36.485315	-37.576927	36.485315	-0.174264	-92.670228
6.650000	-0.185741	-97.607877	-37.498531	36.644297	-37.498531	36.644297	-0.176761	-93.279124
6.700000	-0.188424	-98.242797	-37.416684	36.797753	-37.416684	36.797753	-0.179306	-93.886171
6.750000	-0.191133	-98.876803	-37.333545	36.948445	-37.333545	36.948445	-0.181874	-94.492295
6.800000	-0.193885	-99.509241	-37.247551	37.092537	-37.247551	37.092537	-0.184484	-95.096829
6.850000	-0.196669	-100.140561	-37.159824	37.231915	-37.159824	37.231915	-0.187124	-95.700227
6.900000	-0.199491	-100.770569	-37.069867	37.364239	-37.069867	37.364239	-0.189800	-96.302286
6.950000	-0.202352	-101.399264	-36.977757	37.489510	-36.977757	37.489510	-0.192513	-96.903006
7.000000	-0.205245	-102.026892	-36.884056	37.607852	-36.884056	37.607852	-0.195257	-97.502631
7.050000	-0.208184	-102.653026	-36.787811	37.716495	-36.787811	37.716495	-0.198045	-98.100722
7.100000	-0.211150	-103.278328	-36.690613	37.818857	-36.690613	37.818857	-0.200858	-98.697953
7.150000	-0.214169	-103.901965	-36.590520	37.908656	-36.590520	37.908656	-0.203721	-99.293466
7.200000	-0.217208	-104.524994	-36.490099	37.993271	-36.490099	37.993271	-0.206604	-99.888346
7.250000	-0.220308	-105.146201	-36.386471	38.062335	-36.386471	38.062335	-0.209545	-100.481332
7.300000	-0.223422	-105.767015	-36.283116	38.127684	-36.283116	38.127684	-0.212500	-101.073906
7.350000	-0.226604	-106.385860	-36.176290	38.174457	-36.176290	38.174457	-0.215519	-101.664420
7.400000	-0.229794	-107.004514	-36.070305	38.219271	-36.070305	38.219271	-0.218546	-102.254732
7.450000	-0.233060	-107.621068	-35.960629	38.242535	-35.960629	38.242535	-0.221645	-102.842828
7.500000	-0.236327	-108.237622	-35.852321	38.265800	-35.852321	38.265800	-0.224746	-103.430925
7.550000	-0.239678	-108.851955	-35.740151	38.264666	-35.740151	38.264666	-0.227927	-104.016660
7.600000	-0.243031	-109.466289	-35.629412	38.263531	-35.629412	38.263531	-0.231108	-104.602396
7.650000	-0.246461	-110.078655	-35.515522	38.239504	-35.515522	38.239504	-0.234365	-105.186021
7.700000	-0.249900	-110.690843	-35.402698	38.213395	-35.402698	38.213395	-0.237630	-105.769455
7.750000	-0.253411	-111.301304	-35.287395	38.166238	-35.287395	38.166238	-0.240963	-106.351019
7.800000	-0.256937	-111.911420	-35.172827	38.114872	-35.172827	38.114872	-0.244312	-106.932210
7.850000	-0.260530	-112.520040	-35.056405	38.044552	-35.056405	38.044552	-0.247724	-107.511764
7.900000	-0.264146	-113.128161	-34.940422	37.967913	-34.940422	37.967913	-0.251157	-108.090773
7.950000	-0.267821	-113.735004	-34.823160	37.874576	-34.823160	37.874576	-0.254648	-108.668368
8.000000	-0.271527	-114.341209	-34.706076	37.772891	-34.706076	37.772891	-0.258168	-109.245258
8.050000	-0.275285	-114.946343	-34.588236	37.656850	-34.588236	37.656850	-0.261739	-109.820947
8.100000	-0.279083	-115.550711	-34.470343	37.530555	-34.470343	37.530555	-0.265347	-110.395781
8.150000	-0.282926	-116.154202	-34.352167	37.392266	-34.352167	37.392266	-0.268998	-110.969618
8.200000	-0.286816	-116.756815	-34.233740	37.241982	-34.233740	37.241982	-0.272695	-111.542460
8.250000	-0.290745	-117.358732	-34.115451	37.082024	-34.115451	37.082024	-0.276429	-112.114501
8.300000	-0.294728	-117.959673	-33.996739	36.908524	-33.996739	36.908524	-0.280215	-112.685418
8.350000	-0.298743	-118.560086	-33.878537	36.727586	-33.878537	36.727586	-0.284031	-113.255717
8.400000	-0.302821	-119.159439	-33.759768	36.531771	-33.759768	36.531771	-0.287908	-113.824777
8.450000	-0.306924	-119.758418	-33.641833	36.330628	-33.641833	36.330628	-0.291809	-114.393390
8.500000	-0.311098	-120.356270	-33.523207	36.113500	-33.523207	36.113500	-0.295777	-114.960662
8.550000	-0.315289	-120.953887	-33.405699	35.893000	-33.405699	35.893000	-0.299763	-115.527648
8.600000	-0.319559	-121.550326	-33.287393	35.655639	-33.287393	35.655639	-0.303824	-116.093202
8.650000	-0.323839	-122.146655	-33.170451	35.416687	-33.170451	35.416687	-0.307895	-116.658619
8.700000	-0.328207	-122.741769	-33.052617	35.160230	-33.052617	35.160230	-0.312050	-117.222526
8.750000	-0.332577	-123.336884	-32.936360	34.903772	-32.936360	34.903772	-0.316208	-117.786433
8.800000	-0.337043	-123.930765	-32.819127	34.629392	-32.819127	34.629392	-0.320457	-118.348766
8.850000	-0.341512	-124.524646	-32.703455	34.355012	-32.703455	34.355012	-0.324709	-118.911099
8.900000	-0.346069	-125.117481	-32.587128	34.065297	-32.587128	34.065297	-0.329047	-119.472057
8.950000	-0.350637	-125.710222	-32.472142	33.774189	-32.472142	33.774189	-0.333394	-120.032890
9.000000	-0.355287	-126.302089	-32.356783	33.470142	-32.356783	33.470142	-0.337821	-120.592536
9.050000	-0.359955	-126.893783	-32.242566	33.163506	-32.242566	33.163506	-0.342264	-121.151944
9.100000	-0.364697	-127.484763	-32.128220	32.846121	-32.128220	32.846121	-0.346780	-121.710342
9.150000	-0.369466	-128.075505	-32.014831	32.525153	-32.014831	32.525153	-0.351321	-122.268402
9.200000	-0.374301	-128.665678	-31.901529	32.195414	-31.901529	32.195414	-0.355926	-122.825616
9.250000	-0.379172	-129.255566	-31.789008	31.861290	-31.789008	31.861290	-0.360564	-123.382406
9.300000	-0.384101	-129.845014	-31.676764	31.520163	-31.676764	31.520163	-0.365260	-123.938501
9.350000	-0.389073	-130.434148	-31.565133	31.174033	-31.565133	31.174033	-0.369997	-124.494101
9.400000	-0.394097	-131.022955	-31.453950	30.822458	-31.453950	30.822458	-0.374783	-125.049145
9.450000	-0.399171	-131.611435	-31.343215	30.465439	-31.343215	30.465439	-0.379619	-125.603634
9.500000	-0.404290	-132.199685	-31.233081	30.104332	-31.233081	30.104332	-0.384496	-126.157695
9.550000	-0.409467	-132.787614	-31.123230	29.737499	-31.123230	29.737499	-0.389431	-126.711156
9.600000	-0.414681	-133.375394	-31.014123	29.367739	-31.014123	29.367739	-0.394400	-127.264303
9.650000	-0.419962	-133.962877	-30.905129	28.992124	-30.905129	28.992124	-0.399435	-127.816819
9.700000	-0.425270	-134.550274	-30.797016	28.614559	-30.797016	28.614559	-0.404497	-128.369121
9.750000	-0.430655	-135.137416	-30.688840	28.231143	-30.688840	28.231143	-0.409631	-128.920778
9.800000	-0.436059	-135.724519	-30.581678	27.846581	-30.581678	27.846581	-0.414785	-129.472306
9.850000	-0.441547	-136.311429	-30.474265	27.456293	-30.474265	27.456293	-0.420020	-130.023190
9.900000	-0.447046	-136.898329	-30.368004	27.065504	-30.368004	27.065504	-0.425266	-130.574017
9.950000	-0.452638	-137.485117	-30.261289	26.669218	-30.261289	26.669218	-0.430602	-131.124216
10.000000	-0.458234	-138.071905	-30.155869	26.272932	-30.155869	26.272932	-0.435941	-131.674414
