! freq	dB(S11)	phase(S11)	dB(S12)	phase(S12)	
!     	dB(S21)	phase(S21)	dB(S22)	phase(S22)	
!S-par simulation data
#  GHz  S  DB  R 50
0.000000	-0.000000	0.000000	-333.847745	0.000000	-333.847745	0.000000	-0.000000	0.000000
0.050000	-0.000101	-0.813922	-69.553259	88.480612	-69.553259	88.480612	-0.000101	-0.813782
0.100000	-0.000401	-1.627601	-63.611753	87.337709	-63.611753	87.337709	-0.000401	-1.627321
0.150000	-0.000888	-2.440812	-60.157912	86.485049	-60.157912	86.485049	-0.000887	-2.440392
0.200000	-0.001542	-3.253367	-57.706945	85.749101	-57.706945	85.749101	-0.001541	-3.252809
0.250000	-0.002352	-4.065054	-55.801920	85.043705	-55.801920	85.043705	-0.002350	-4.064358
0.300000	-0.003280	-4.875831	-54.242104	84.335616	-54.242104	84.335616	-0.003277	-4.874998
0.350000	-0.004309	-5.685584	-52.921555	83.617331	-52.921555	83.617331	-0.004305	-5.684615
0.400000	-0.005416	-6.494267	-51.776931	82.887572	-51.776931	82.887572	-0.005411	-6.493163
0.450000	-0.006579	-7.301859	-50.767291	82.147574	-50.767291	82.147574	-0.006573	-7.300621
0.500000	-0.007782	-8.108366	-49.864591	81.399119	-49.864591	81.399119	-0.007775	-8.106994
0.550000	-0.009008	-8.913805	-49.048756	80.643908	-49.048756	80.643908	-0.008999	-8.912301
0.600000	-0.010244	-9.718204	-48.304920	79.883393	-48.304920	79.883393	-0.010235	-9.716569
0.650000	-0.011483	-10.521598	-47.621758	79.118772	-47.621758	79.118772	-0.011473	-10.519831
0.700000	-0.012715	-11.324017	-46.990447	78.351020	-46.990447	78.351020	-0.012704	-11.322120
0.750000	-0.013937	-12.125494	-46.403979	77.580935	-46.403979	77.580935	-0.013925	-12.123466
0.800000	-0.015146	-12.926055	-45.856690	76.809171	-45.856690	76.809171	-0.015133	-12.923898
0.850000	-0.016338	-13.725723	-45.343944	76.036271	-45.343944	76.036271	-0.016325	-13.723436
0.900000	-0.017514	-14.524514	-44.861892	75.262692	-44.861892	75.262692	-0.017500	-14.522098
0.950000	-0.018674	-15.322439	-44.407307	74.488823	-44.407307	74.488823	-0.018658	-15.319894
1.000000	-0.019817	-16.119505	-43.977455	73.714998	-43.977455	73.714998	-0.019801	-16.116832
1.050000	-0.020945	-16.915714	-43.570000	72.941509	-43.570000	72.941509	-0.020928	-16.912913
1.100000	-0.022058	-17.711062	-43.182931	72.168612	-43.182931	72.168612	-0.022041	-17.708133
1.150000	-0.023159	-18.505545	-42.814503	71.396538	-42.814503	71.396538	-0.023141	-18.502488
1.200000	-0.024248	-19.299151	-42.463191	70.625494	-42.463191	70.625494	-0.024229	-19.295967
1.250000	-0.025327	-20.091871	-42.127657	69.855667	-42.127657	69.855667	-0.025307	-20.088560
1.300000	-0.026395	-20.883648	-41.806816	69.087300	-41.806816	69.087300	-0.026375	-20.880211
1.350000	-0.027456	-21.674508	-41.499520	68.320498	-41.499520	68.320498	-0.027435	-21.670944
1.400000	-0.028510	-22.464431	-41.204835	67.555411	-41.204835	67.555411	-0.028488	-22.460742
1.450000	-0.029558	-23.253400	-40.921923	66.792179	-40.921923	66.792179	-0.029536	-23.249585
1.500000	-0.030602	-24.041395	-40.650029	66.030934	-40.650029	66.030934	-0.030578	-24.037455
1.550000	-0.031640	-24.828397	-40.388473	65.271804	-40.388473	65.271804	-0.031616	-24.824332
1.600000	-0.032676	-25.614385	-40.136639	64.514909	-40.136639	64.514909	-0.032651	-25.610195
1.650000	-0.033709	-26.399339	-39.893965	63.760367	-39.893965	63.760367	-0.033683	-26.395025
1.700000	-0.034739	-27.182863	-39.660676	63.009199	-39.660676	63.009199	-0.034712	-27.178425
1.750000	-0.035768	-27.965829	-39.434548	62.259356	-39.434548	62.259356	-0.035741	-27.961267
1.800000	-0.036796	-28.747451	-39.216648	61.512827	-39.216648	61.512827	-0.036768	-28.742766
1.850000	-0.037824	-29.528113	-39.005817	60.768665	-39.005817	60.768665	-0.037795	-29.523305
1.900000	-0.038851	-30.307578	-38.802091	60.027565	-38.802091	60.027565	-0.038822	-30.302649
1.950000	-0.039879	-31.085848	-38.605096	59.289526	-38.605096	59.289526	-0.039849	-31.080797
2.000000	-0.040907	-31.863086	-38.414203	58.554215	-38.414203	58.554215	-0.040876	-31.857912
2.050000	-0.041936	-32.638877	-38.229792	57.822721	-38.229792	57.822721	-0.041905	-32.633583
2.100000	-0.042966	-33.413815	-38.050580	57.093545	-38.050580	57.093545	-0.042934	-33.408400
2.150000	-0.043998	-34.187046	-37.877669	56.369003	-37.877669	56.369003	-0.043965	-34.181510
2.200000	-0.045032	-34.959616	-37.709141	55.646297	-37.709141	55.646297	-0.044998	-34.953960
2.250000	-0.046068	-35.730205	-37.546787	54.929100	-37.546787	54.929100	-0.046033	-35.724430
2.300000	-0.047105	-36.500342	-37.388071	54.213192	-37.388071	54.213192	-0.047070	-36.494447
2.350000	-0.048147	-37.268214	-37.235445	53.503724	-37.235445	53.503724	-0.048111	-37.262200
2.400000	-0.049190	-38.035853	-37.085778	52.794930	-37.085778	52.794930	-0.049153	-38.029721
2.450000	-0.050238	-38.800935	-36.942144	52.093563	-36.942144	52.093563	-0.050201	-38.794685
2.500000	-0.051287	-39.566017	-36.800848	51.392196	-36.800848	51.392196	-0.051249	-39.559649
2.550000	-0.052344	-40.328239	-36.665554	50.699295	-36.665554	50.699295	-0.052305	-40.321754
2.600000	-0.053400	-41.090461	-36.532335	50.006393	-36.532335	50.006393	-0.053360	-41.083859
2.650000	-0.054465	-41.850003	-36.404483	49.321578	-36.404483	49.321578	-0.054425	-41.843284
2.700000	-0.055531	-42.609301	-36.278787	48.637497	-36.278787	48.637497	-0.055490	-42.602466
2.750000	-0.056606	-43.366110	-36.157862	47.961058	-36.157862	47.961058	-0.056564	-43.359159
2.800000	-0.057682	-44.122421	-36.039186	47.286148	-36.039186	47.286148	-0.057639	-44.115355
2.850000	-0.058767	-44.876449	-35.924723	46.618369	-35.924723	46.618369	-0.058724	-44.869269
2.900000	-0.059855	-45.629716	-35.812609	45.952969	-35.812609	45.952969	-0.059811	-45.622421
2.950000	-0.060952	-46.380918	-35.704185	45.294130	-35.704185	45.294130	-0.060907	-46.373509
3.000000	-0.062054	-47.131087	-35.598215	44.638573	-35.598215	44.638573	-0.062008	-47.123564
3.050000	-0.063164	-47.879419	-35.495443	43.988947	-35.495443	43.988947	-0.063118	-47.871783
3.100000	-0.064280	-48.626439	-35.395231	43.343559	-35.395231	43.343559	-0.064233	-48.618690
3.150000	-0.065404	-49.371861	-35.297758	42.703413	-35.297758	42.703413	-0.065357	-49.364000
3.200000	-0.066537	-50.115686	-35.202945	42.068511	-35.202945	42.068511	-0.066488	-50.107713
3.250000	-0.067677	-50.858162	-35.110443	41.438107	-35.110443	41.438107	-0.067628	-50.850077
3.300000	-0.068827	-51.598749	-35.020698	40.814001	-35.020698	40.814001	-0.068777	-51.590552
3.350000	-0.069984	-52.338244	-34.932865	40.193594	-34.932865	40.193594	-0.069933	-52.329936
3.400000	-0.071153	-53.075554	-34.847877	39.580586	-34.847877	39.580586	-0.071102	-53.067135
3.450000	-0.072328	-53.812036	-34.764429	38.970425	-34.764429	38.970425	-0.072276	-53.803507
3.500000	-0.073519	-54.546033	-34.683905	38.368807	-34.683905	38.368807	-0.073466	-54.537395
3.550000	-0.074714	-55.279474	-34.604579	37.769134	-34.604579	37.769134	-0.074660	-55.270725
3.600000	-0.075927	-56.010128	-34.528243	37.179189	-34.528243	37.179189	-0.075873	-56.001270
3.650000	-0.077142	-56.740501	-34.452792	36.590239	-34.452792	36.590239	-0.077087	-56.731534
3.700000	-0.078380	-57.467783	-34.380381	36.012240	-34.380381	36.012240	-0.078324	-57.458708
3.750000	-0.079618	-58.195066	-34.308570	35.434241	-34.308570	35.434241	-0.079561	-58.185882
3.800000	-0.080881	-58.918952	-34.239835	34.868450	-34.239835	34.868450	-0.080824	-58.909661
3.850000	-0.082145	-59.642839	-34.171640	34.302658	-34.171640	34.302658	-0.082088	-59.633440
3.900000	-0.083434	-60.363595	-34.106143	33.748287	-34.106143	33.748287	-0.083376	-60.354088
3.950000	-0.084726	-61.084065	-34.041332	33.194953	-34.041332	33.194953	-0.084667	-61.074452
4.000000	-0.086042	-61.801675	-33.978864	32.652198	-33.978864	32.652198	-0.085982	-61.791955
4.050000	-0.087363	-62.518714	-33.917212	32.111558	-33.917212	32.111558	-0.087303	-62.508887
4.100000	-0.088708	-63.233167	-33.857573	31.580606	-33.857573	31.580606	-0.088646	-63.223234
4.150000	-0.090060	-63.946759	-33.798863	31.052883	-33.798863	31.052883	-0.089998	-63.936721
4.200000	-0.091434	-64.658048	-33.741859	30.533907	-33.741859	30.533907	-0.091371	-64.647904
4.250000	-0.092820	-65.368185	-33.685880	30.019306	-33.685880	30.019306	-0.092756	-65.357935
4.300000	-0.094225	-66.076302	-33.631327	29.512468	-33.631327	29.512468	-0.094161	-66.065948
4.350000	-0.095645	-66.782978	-33.577873	29.011177	-33.577873	29.011177	-0.095580	-66.772519
4.400000	-0.097083	-67.487922	-33.525590	28.516624	-33.525590	28.516624	-0.097018	-67.477358
4.450000	-0.098540	-68.191133	-33.474459	28.028811	-33.474459	28.028811	-0.098473	-68.180465
4.500000	-0.100013	-68.892902	-33.424271	27.546674	-33.424271	27.546674	-0.099945	-68.882130
4.550000	-0.101507	-69.592651	-33.375266	27.072485	-33.375266	27.072485	-0.101439	-69.581775
4.600000	-0.103015	-70.291248	-33.327000	26.602879	-33.327000	26.602879	-0.102947	-70.280268
4.650000	-0.104550	-70.987538	-33.279926	26.142436	-33.279926	26.142436	-0.104481	-70.976455
4.700000	-0.106096	-71.682966	-33.233416	25.685454	-33.233416	25.685454	-0.106025	-71.671779
4.750000	-0.107672	-72.375806	-33.188080	25.238852	-33.188080	25.238852	-0.107601	-72.364516
4.800000	-0.109256	-73.068073	-33.143161	24.794569	-33.143161	24.794569	-0.109184	-73.056680
4.850000	-0.110876	-73.757473	-33.099373	24.361874	-33.099373	24.361874	-0.110803	-73.745978
4.900000	-0.112500	-74.446588	-33.055883	23.930340	-33.055883	23.930340	-0.112427	-74.434990
4.950000	-0.114165	-75.132563	-33.013455	23.511583	-33.013455	23.511583	-0.114091	-75.120862
5.000000	-0.115831	-75.818538	-32.971234	23.092826	-32.971234	23.092826	-0.115756	-75.806735
5.050000	-0.117543	-76.501104	-32.929979	22.688003	-32.929979	22.688003	-0.117467	-76.489199
5.100000	-0.119255	-77.183671	-32.888920	22.283180	-32.888920	22.283180	-0.119179	-77.171664
5.150000	-0.121012	-77.863132	-32.848602	21.891090	-32.848602	21.891090	-0.120935	-77.851023
5.200000	-0.122773	-78.542311	-32.808520	21.500157	-32.808520	21.500157	-0.122696	-78.530100
5.250000	-0.124576	-79.218687	-32.768983	21.120726	-32.768983	21.120726	-0.124498	-79.206374
5.300000	-0.126388	-79.894501	-32.729696	20.743596	-32.729696	20.743596	-0.126309	-79.882086
5.350000	-0.128239	-80.567813	-32.690784	20.376718	-32.690784	20.376718	-0.128158	-80.555296
5.400000	-0.130102	-81.240289	-32.652111	20.013256	-32.652111	20.013256	-0.130021	-81.227671
5.450000	-0.132002	-81.910560	-32.613672	19.658784	-32.613672	19.658784	-0.131920	-81.897840
5.500000	-0.133920	-82.579728	-32.575433	19.308807	-32.575433	19.308807	-0.133837	-82.566907
5.550000	-0.135870	-83.246985	-32.537316	18.966556	-32.537316	18.966556	-0.135786	-83.234062
5.600000	-0.137843	-83.912876	-32.499332	18.629825	-32.499332	18.629825	-0.137758	-83.899851
5.650000	-0.139844	-84.577146	-32.461388	18.299568	-32.461388	18.299568	-0.139759	-84.564020
5.700000	-0.141875	-85.239796	-32.423483	17.975785	-32.423483	17.975785	-0.141789	-85.226567
5.750000	-0.143930	-85.901109	-32.385566	17.657250	-32.385566	17.657250	-0.143843	-85.887780
5.800000	-0.146019	-86.560554	-32.347567	17.346060	-32.347567	17.346060	-0.145931	-86.547122
5.850000	-0.148129	-87.218943	-32.309535	17.038928	-32.309535	17.038928	-0.148040	-87.205410
5.900000	-0.150279	-87.875223	-32.271271	16.739912	-32.271271	16.739912	-0.150189	-87.861588
5.950000	-0.152444	-88.530722	-32.232982	16.443817	-32.232982	16.443817	-0.152354	-88.516985
6.000000	-0.154656	-89.183879	-32.194287	16.156489	-32.194287	16.156489	-0.154565	-89.170040
6.050000	-0.156879	-89.836524	-32.155608	15.871017	-32.155608	15.871017	-0.156787	-89.822582
6.100000	-0.159155	-90.486603	-32.116320	15.594826	-32.116320	15.594826	-0.159062	-90.472559
6.150000	-0.161437	-91.136430	-32.077118	15.319511	-32.077118	15.319511	-0.161343	-91.122284
6.200000	-0.163779	-91.783480	-32.037083	15.053839	-32.037083	15.053839	-0.163684	-91.769231
6.250000	-0.166121	-92.430529	-31.997231	14.788166	-31.997231	14.788166	-0.166025	-92.416177
6.300000	-0.168529	-93.074597	-31.956300	14.532328	-31.956300	14.532328	-0.168433	-93.060143
6.350000	-0.170938	-93.718666	-31.915561	14.276489	-31.915561	14.276489	-0.170841	-93.704108
6.400000	-0.173410	-94.360049	-31.873712	14.028977	-31.873712	14.028977	-0.173312	-94.345388
6.450000	-0.175888	-95.001188	-31.831946	13.782222	-31.831946	13.782222	-0.175789	-94.986423
6.500000	-0.178424	-95.639931	-31.789073	13.542360	-31.789073	13.542360	-0.178324	-95.625063
6.550000	-0.180972	-96.278195	-31.746150	13.303876	-31.746150	13.303876	-0.180871	-96.263223
6.600000	-0.183574	-96.914345	-31.702156	13.070944	-31.702156	13.070944	-0.183472	-96.899267
6.650000	-0.186195	-97.549790	-31.657958	12.839861	-31.657958	12.839861	-0.186092	-97.534607
6.700000	-0.188863	-98.183393	-31.612754	12.613096	-31.612754	12.613096	-0.188760	-98.168106
6.750000	-0.191557	-98.816077	-31.567172	12.388491	-31.567172	12.388491	-0.191452	-98.800684
6.800000	-0.194295	-99.447184	-31.520681	12.167099	-31.520681	12.167099	-0.194189	-99.431686
6.850000	-0.197063	-100.077167	-31.473621	11.948001	-31.473621	11.948001	-0.196957	-100.061563
6.900000	-0.199870	-100.705829	-31.425774	11.731153	-31.425774	11.731153	-0.199763	-100.690119
6.950000	-0.202716	-101.333172	-31.377154	11.516556	-31.377154	11.516556	-0.202607	-101.317355
7.000000	-0.205594	-101.959442	-31.327894	11.303401	-31.327894	11.303401	-0.205484	-101.943518
7.050000	-0.208517	-102.584210	-31.277647	11.092265	-31.277647	11.092265	-0.208406	-102.568178
7.100000	-0.211467	-103.208141	-31.226931	10.881932	-31.226931	10.881932	-0.211356	-103.192001
7.150000	-0.214470	-103.830399	-31.175003	10.673204	-31.175003	10.673204	-0.214357	-103.814151
7.200000	-0.217494	-104.452047	-31.122797	10.464811	-31.122797	10.464811	-0.217380	-104.435690
7.250000	-0.220578	-105.071863	-31.069153	10.257425	-31.069153	10.257425	-0.220463	-105.055396
7.300000	-0.223677	-105.691284	-31.015436	10.050087	-31.015436	10.050087	-0.223561	-105.674707
7.350000	-0.226843	-106.308728	-30.960053	9.842984	-30.960053	9.842984	-0.226726	-106.292040
7.400000	-0.230018	-106.925979	-30.904816	9.635817	-30.904816	9.635817	-0.229900	-106.909181
7.450000	-0.233268	-107.541121	-30.847689	9.427953	-30.847689	9.427953	-0.233149	-107.524211
7.500000	-0.236520	-108.156264	-30.790936	9.220088	-30.790936	9.220088	-0.236400	-108.139241
7.550000	-0.239856	-108.769177	-30.732075	9.010446	-30.732075	9.010446	-0.239734	-108.752041
7.600000	-0.243193	-109.382090	-30.673610	8.800803	-30.673610	8.800803	-0.243070	-109.364842
7.650000	-0.246608	-109.993029	-30.613249	8.588635	-30.613249	8.588635	-0.246485	-109.975666
7.700000	-0.250032	-110.603788	-30.553098	8.376238	-30.553098	8.376238	-0.249907	-110.586310
7.750000	-0.253529	-111.212815	-30.491277	8.160774	-30.491277	8.160774	-0.253403	-111.195222
7.800000	-0.257041	-111.821496	-30.429478	7.944696	-30.429478	7.944696	-0.256914	-111.803787
7.850000	-0.260619	-112.428677	-30.366245	7.725210	-30.366245	7.725210	-0.260491	-112.410851
7.900000	-0.264221	-113.035357	-30.302850	7.504588	-30.302850	7.504588	-0.264091	-113.017414
7.950000	-0.267882	-113.640757	-30.238265	7.280407	-30.238265	7.280407	-0.267752	-113.622696
8.000000	-0.271575	-114.245517	-30.173337	7.054447	-30.173337	7.054447	-0.271443	-114.227336
8.050000	-0.275320	-114.849203	-30.107465	6.824957	-30.107465	6.824957	-0.275187	-114.830903
8.100000	-0.279105	-115.452123	-30.041077	6.592944	-30.041077	6.592944	-0.278971	-115.433702
8.150000	-0.282936	-116.054164	-29.973991	6.357591	-29.973991	6.357591	-0.282800	-116.035621
8.200000	-0.286814	-116.655326	-29.906225	6.118896	-29.906225	6.118896	-0.286677	-116.636661
8.250000	-0.290731	-117.255792	-29.838002	5.877194	-29.838002	5.877194	-0.290593	-117.237003
8.300000	-0.294703	-117.855281	-29.768948	5.631279	-29.768948	5.631279	-0.294564	-117.836368
8.350000	-0.298708	-118.454241	-29.699671	5.382809	-29.699671	5.382809	-0.298568	-118.435204
8.400000	-0.302776	-119.052143	-29.629420	5.129228	-29.629420	5.129228	-0.302634	-119.032979
8.450000	-0.306869	-119.649671	-29.559174	4.873644	-29.559174	4.873644	-0.306726	-119.630380
8.500000	-0.311034	-120.246073	-29.487825	4.612047	-29.487825	4.612047	-0.310890	-120.226653
8.550000	-0.315216	-120.842240	-29.416694	4.349072	-29.416694	4.349072	-0.315071	-120.822692
8.600000	-0.319479	-121.437231	-29.344345	4.079205	-29.344345	4.079205	-0.319332	-121.417553
8.650000	-0.323752	-122.032113	-29.272418	3.808635	-29.272418	3.808635	-0.323603	-122.012303
8.700000	-0.328114	-122.625784	-29.199167	3.530335	-29.199167	3.530335	-0.327964	-122.605842
8.750000	-0.332477	-123.219455	-29.126529	3.252035	-29.126529	3.252035	-0.332326	-123.199380
8.800000	-0.336939	-123.811898	-29.052472	2.965231	-29.052472	2.965231	-0.336786	-123.791688
8.850000	-0.341403	-124.404341	-28.979041	2.678427	-28.979041	2.678427	-0.341249	-124.383996
8.900000	-0.345958	-124.995745	-28.904435	2.383842	-28.904435	2.383842	-0.345802	-124.975262
8.950000	-0.350523	-125.587054	-28.830303	2.088549	-28.830303	2.088549	-0.350366	-125.566434
9.000000	-0.355171	-126.177498	-28.755226	1.786262	-28.755226	1.786262	-0.355012	-126.156738
9.050000	-0.359838	-126.767769	-28.680479	1.482575	-28.680479	1.482575	-0.359678	-126.746868
9.100000	-0.364580	-127.357334	-28.605001	1.172721	-28.605001	1.172721	-0.364419	-127.336291
9.150000	-0.369350	-127.946664	-28.529720	0.860811	-28.529720	0.860811	-0.369187	-127.925478
9.200000	-0.374188	-128.535432	-28.453906	0.543576	-28.453906	0.543576	-0.374023	-128.514101
9.250000	-0.379061	-129.123920	-28.378164	0.223678	-28.378164	0.223678	-0.378895	-129.102443
9.300000	-0.383995	-129.711975	-28.302073	-0.100705	-28.302073	-0.100705	-0.383827	-129.690350
9.350000	-0.388972	-130.299722	-28.225933	-0.428293	-28.225933	-0.428293	-0.388803	-130.277948
9.400000	-0.394002	-130.887149	-28.149617	-0.759552	-28.149617	-0.759552	-0.393831	-130.865225
9.450000	-0.399084	-131.474257	-28.073136	-1.094482	-28.073136	-1.094482	-0.398912	-131.452180
9.500000	-0.404211	-132.061142	-27.996639	-1.432307	-27.996639	-1.432307	-0.404037	-132.038912
9.550000	-0.409399	-132.647716	-27.919861	-1.774185	-27.919861	-1.774185	-0.409223	-132.625331
9.600000	-0.414624	-133.234147	-27.843218	-2.118237	-27.843218	-2.118237	-0.414446	-133.211605
9.650000	-0.419918	-133.820293	-27.766180	-2.466636	-27.766180	-2.466636	-0.419738	-133.797592
9.700000	-0.425240	-134.406359	-27.689420	-2.816550	-27.689420	-2.816550	-0.425059	-134.383499
9.750000	-0.430640	-134.992185	-27.612147	-3.171012	-27.612147	-3.171012	-0.430458	-134.969163
9.800000	-0.436061	-135.577977	-27.535290	-3.526404	-27.535290	-3.526404	-0.435876	-135.554792
9.850000	-0.441568	-136.163594	-27.457795	-3.886449	-27.457795	-3.886449	-0.441382	-136.140243
9.900000	-0.447087	-136.749203	-27.380852	-4.246919	-27.380852	-4.246919	-0.446899	-136.725687
9.950000	-0.452701	-137.334724	-27.303139	-4.612056	-27.303139	-4.612056	-0.452512	-137.311037
10.000000	-0.458319	-137.920245	-27.226116	-4.977193	-27.226116	-4.977193	-0.458128	-137.896388
