! freq	dB(S11)	phase(S11)	dB(S12)	phase(S12)	
!     	dB(S21)	phase(S21)	dB(S22)	phase(S22)	
!S-par simulation data
#  GHz  S  DB  R 50
0.000000	-0.000000	0.000000	-317.785305	0.000000	-317.785305	0.000000	-0.000000	0.000000
0.050000	-0.000484	-0.817255	-55.427725	88.894266	-55.427725	88.894266	-0.000773	-1.229796
0.100000	-0.001699	-1.631578	-49.409258	87.775740	-49.409258	87.775740	-0.002639	-2.454112
0.150000	-0.003222	-2.442239	-45.892494	86.617818	-45.892494	86.617818	-0.004851	-3.672060
0.200000	-0.004748	-3.250067	-43.421861	85.329913	-43.421861	85.329913	-0.006969	-4.885485
0.250000	-0.006175	-4.056433	-41.583744	84.439831	-41.583744	84.439831	-0.008913	-6.096713
0.300000	-0.007488	-4.861960	-39.988190	83.972658	-39.988190	83.972658	-0.010701	-7.306706
0.350000	-0.008707	-5.667048	-38.603390	82.993549	-38.603390	82.993549	-0.012388	-8.516017
0.400000	-0.009862	-6.471854	-37.435342	81.883736	-37.435342	81.883736	-0.014022	-9.724828
0.450000	-0.010980	-7.276385	-36.415525	80.807750	-36.415525	80.807750	-0.015636	-10.933079
0.500000	-0.012086	-8.080626	-35.507271	79.751531	-35.507271	79.751531	-0.017256	-12.140709
0.550000	-0.013196	-8.884517	-34.688273	78.708538	-34.688273	78.708538	-0.018891	-13.347579
0.600000	-0.014321	-9.687992	-33.942610	77.675227	-33.942610	77.675227	-0.020550	-14.553537
0.650000	-0.015467	-10.490984	-33.258376	76.649518	-33.258376	76.649518	-0.022237	-15.758429
0.700000	-0.016642	-11.293434	-32.626392	75.630082	-32.626392	75.630082	-0.023952	-16.962110
0.750000	-0.017850	-12.095244	-32.039551	74.616288	-32.039551	74.616288	-0.025700	-18.164348
0.800000	-0.019094	-12.896357	-31.492004	73.607353	-31.492004	73.607353	-0.027479	-19.365005
0.850000	-0.020374	-13.696737	-30.978941	72.602612	-30.978941	72.602612	-0.029288	-20.563986
0.900000	-0.021687	-14.496396	-30.496298	71.601408	-30.496298	71.601408	-0.031125	-21.761308
0.950000	-0.023035	-15.295249	-30.040914	70.603652	-30.040914	70.603652	-0.032990	-22.956771
1.000000	-0.024418	-16.093258	-29.610015	69.609077	-29.610015	69.609077	-0.034882	-24.150278
1.050000	-0.025834	-16.890386	-29.201238	68.617466	-29.201238	68.617466	-0.036800	-25.341742
1.100000	-0.027283	-17.686600	-28.812554	67.628642	-28.812554	67.628642	-0.038743	-26.531082
1.150000	-0.028761	-18.481869	-28.442203	66.642465	-28.442203	66.642465	-0.040708	-27.718222
1.200000	-0.030269	-19.276162	-28.088654	65.658822	-28.088654	65.658822	-0.042696	-28.903094
1.250000	-0.031804	-20.069452	-27.750564	64.677626	-27.750564	64.677626	-0.044704	-30.085635
1.300000	-0.033366	-20.861668	-27.426820	63.698912	-27.426820	63.698912	-0.046732	-31.265678
1.350000	-0.034952	-21.652829	-27.116300	62.722527	-27.116300	62.722527	-0.048777	-32.443271
1.400000	-0.036560	-22.442911	-26.818067	61.748439	-26.818067	61.748439	-0.050840	-33.618361
1.450000	-0.038189	-23.231892	-26.531286	60.776629	-26.531286	60.776629	-0.052918	-34.790902
1.500000	-0.039838	-24.019752	-26.255205	59.807087	-26.255205	59.807087	-0.055010	-35.960848
1.550000	-0.041504	-24.806470	-25.989145	58.839814	-25.989145	58.839814	-0.057116	-37.128157
1.600000	-0.043188	-25.592027	-25.732494	57.874815	-25.732494	57.874815	-0.059234	-38.292788
1.650000	-0.044887	-26.376405	-25.484691	56.912105	-25.484691	56.912105	-0.061364	-39.454704
1.700000	-0.046601	-27.159586	-25.245230	55.951701	-25.245230	55.951701	-0.063505	-40.613868
1.750000	-0.048329	-27.941552	-25.013646	54.993624	-25.013646	54.993624	-0.065656	-41.770246
1.800000	-0.050069	-28.722287	-24.789511	54.037901	-24.789511	54.037901	-0.067817	-42.923807
1.850000	-0.051822	-29.501775	-24.572435	53.084558	-24.572435	53.084558	-0.069987	-44.074518
1.900000	-0.053585	-30.280000	-24.362054	52.133624	-24.362054	52.133624	-0.072166	-45.222351
1.950000	-0.055360	-31.056947	-24.158037	51.185132	-24.158037	51.185132	-0.074354	-46.367279
2.000000	-0.057144	-31.832602	-23.960072	50.239113	-23.960072	50.239113	-0.076550	-47.509275
2.050000	-0.058938	-32.606948	-23.767873	49.295599	-23.767873	49.295599	-0.078754	-48.648313
2.100000	-0.060741	-33.379973	-23.581173	48.354624	-23.581173	48.354624	-0.080966	-49.784371
2.150000	-0.062554	-34.151662	-23.399722	47.416219	-23.399722	47.416219	-0.083186	-50.917427
2.200000	-0.064374	-34.922003	-23.223287	46.480419	-23.223287	46.480419	-0.085414	-52.047460
2.250000	-0.066204	-35.690980	-23.051652	45.547254	-23.051652	45.547254	-0.087650	-53.174451
2.300000	-0.068041	-36.458583	-22.884611	44.616757	-22.884611	44.616757	-0.089894	-54.298381
2.350000	-0.069887	-37.224797	-22.721973	43.688958	-22.721973	43.688958	-0.092147	-55.419234
2.400000	-0.071741	-37.989611	-22.563558	42.763887	-22.563558	42.763887	-0.094408	-56.536996
2.450000	-0.073604	-38.753012	-22.409196	41.841573	-22.409196	41.841573	-0.096677	-57.651652
2.500000	-0.075474	-39.514988	-22.258725	40.922045	-22.258725	40.922045	-0.098955	-58.763189
2.550000	-0.077354	-40.275464	-22.112047	40.005452	-22.112047	40.005452	-0.101243	-59.871461
2.600000	-0.079241	-41.034492	-21.968965	39.091698	-21.968965	39.091698	-0.103541	-60.976593
2.650000	-0.081138	-41.792060	-21.829343	38.180808	-21.829343	38.180808	-0.105848	-62.078577
2.700000	-0.083043	-42.548158	-21.693052	37.272804	-21.693052	37.272804	-0.108165	-63.177408
2.750000	-0.084957	-43.302774	-21.559969	36.367708	-21.559969	36.367708	-0.110493	-64.273079
2.800000	-0.086881	-44.055900	-21.429980	35.465539	-21.429980	35.465539	-0.112832	-65.365588
2.850000	-0.088814	-44.807524	-21.302971	34.566316	-21.302971	34.566316	-0.115182	-66.454931
2.900000	-0.090757	-45.557637	-21.178839	33.670056	-21.178839	33.670056	-0.117545	-67.541108
2.950000	-0.092711	-46.306231	-21.057482	32.776774	-21.057482	32.776774	-0.119919	-68.624120
3.000000	-0.094674	-47.053296	-20.938803	31.886485	-20.938803	31.886485	-0.122306	-69.703969
3.050000	-0.096649	-47.798823	-20.822712	30.999201	-20.822712	30.999201	-0.124706	-70.780658
3.100000	-0.098634	-48.542805	-20.709119	30.114934	-20.709119	30.114934	-0.127119	-71.854192
3.150000	-0.100631	-49.285233	-20.597941	29.233692	-20.597941	29.233692	-0.129547	-72.924578
3.200000	-0.102640	-50.026101	-20.489096	28.355485	-20.489096	28.355485	-0.131988	-73.991824
3.250000	-0.104661	-50.765400	-20.382507	27.480319	-20.382507	27.480319	-0.134445	-75.055938
3.300000	-0.106695	-51.503124	-20.278099	26.608199	-20.278099	26.608199	-0.136918	-76.116932
3.350000	-0.108742	-52.239268	-20.175801	25.739129	-20.175801	25.739129	-0.139406	-77.174817
3.400000	-0.110802	-52.973823	-20.075543	24.873111	-20.075543	24.873111	-0.141911	-78.229607
3.450000	-0.112875	-53.706786	-19.977259	24.010147	-19.977259	24.010147	-0.144432	-79.281318
3.500000	-0.114963	-54.438151	-19.880886	23.150235	-19.880886	23.150235	-0.146971	-80.329964
3.550000	-0.117065	-55.167913	-19.786361	22.293373	-19.786361	22.293373	-0.149528	-81.375564
3.600000	-0.119182	-55.896067	-19.693625	21.439559	-19.693625	21.439559	-0.152103	-82.418137
3.650000	-0.121315	-56.622610	-19.602621	20.588787	-19.602621	20.588787	-0.154698	-83.457704
3.700000	-0.123463	-57.347537	-19.513293	19.741050	-19.513293	19.741050	-0.157311	-84.494284
3.750000	-0.125627	-58.070846	-19.425587	18.896343	-19.425587	18.896343	-0.159945	-85.527903
3.800000	-0.127808	-58.792463	-19.339481	18.054785	-19.339481	18.054785	-0.162600	-86.558457
3.850000	-0.130006	-59.512456	-19.254895	17.216236	-19.254895	17.216236	-0.165277	-87.586100
3.900000	-0.132221	-60.230822	-19.171778	16.380684	-19.171778	16.380684	-0.167974	-88.610861
3.950000	-0.134454	-60.947561	-19.090084	15.548114	-19.090084	15.548114	-0.170694	-89.632766
4.000000	-0.136705	-61.662670	-19.009767	14.718514	-19.009767	14.718514	-0.173437	-90.651846
4.050000	-0.138974	-62.376148	-18.930784	13.891866	-18.930784	13.891866	-0.176203	-91.668130
4.100000	-0.141261	-63.087996	-18.853091	13.068155	-18.853091	13.068155	-0.178992	-92.681651
4.150000	-0.143568	-63.798212	-18.776646	12.247363	-18.776646	12.247363	-0.181806	-93.692441
4.200000	-0.145894	-64.506796	-18.701410	11.429469	-18.701410	11.429469	-0.184645	-94.700535
4.250000	-0.148239	-65.213750	-18.627342	10.614453	-18.627342	10.614453	-0.187510	-95.705967
4.300000	-0.150604	-65.919072	-18.554405	9.802293	-18.554405	9.802293	-0.190400	-96.708774
4.350000	-0.152990	-66.622765	-18.482561	8.992967	-18.482561	8.992967	-0.193317	-97.708994
4.400000	-0.155396	-67.324829	-18.411775	8.186451	-18.411775	8.186451	-0.196261	-98.706664
4.450000	-0.157824	-68.025266	-18.342011	7.382718	-18.342011	7.382718	-0.199233	-99.701824
4.500000	-0.160272	-68.724076	-18.273235	6.581744	-18.273235	6.581744	-0.202233	-100.694515
4.550000	-0.162743	-69.421263	-18.205413	5.783499	-18.205413	5.783499	-0.205262	-101.684778
4.600000	-0.165235	-70.116828	-18.138514	4.987957	-18.138514	4.987957	-0.208321	-102.672655
4.650000	-0.167750	-70.810774	-18.072506	4.195086	-18.072506	4.195086	-0.211409	-103.658191
4.700000	-0.170287	-71.503103	-18.007358	3.404857	-18.007358	3.404857	-0.214529	-104.641428
4.750000	-0.172848	-72.193818	-17.943039	2.617237	-17.943039	2.617237	-0.217680	-105.622414
4.800000	-0.175433	-72.882921	-17.879521	1.832195	-17.879521	1.832195	-0.220862	-106.601194
4.850000	-0.178042	-73.570417	-17.816775	1.049695	-17.816775	1.049695	-0.224078	-107.577815
4.900000	-0.180675	-74.256310	-17.754774	0.269704	-17.754774	0.269704	-0.227326	-108.552326
4.950000	-0.183334	-74.940602	-17.693489	-0.507815	-17.693489	-0.507815	-0.230608	-109.524774
5.000000	-0.186018	-75.623298	-17.632895	-1.282898	-17.632895	-1.282898	-0.233925	-110.495211
5.050000	-0.188730	-76.304333	-17.572976	-2.055480	-17.572976	-2.055480	-0.237279	-111.463605
5.100000	-0.191469	-76.983783	-17.513695	-2.825707	-17.513695	-2.825707	-0.240668	-112.430093
5.150000	-0.194236	-77.661652	-17.455027	-3.593617	-17.455027	-3.593617	-0.244093	-113.394729
5.200000	-0.197031	-78.337945	-17.396949	-4.359252	-17.396949	-4.359252	-0.247556	-114.357565
5.250000	-0.199855	-79.012670	-17.339436	-5.122653	-17.339436	-5.122653	-0.251057	-115.318657
5.300000	-0.202709	-79.685831	-17.282465	-5.883863	-17.282465	-5.883863	-0.254596	-116.278058
5.350000	-0.205594	-80.357437	-17.226015	-6.642925	-17.226015	-6.642925	-0.258174	-117.235825
5.400000	-0.208510	-81.027494	-17.170064	-7.399883	-17.170064	-7.399883	-0.261792	-118.192014
5.450000	-0.211458	-81.696009	-17.114589	-8.154782	-17.114589	-8.154782	-0.265451	-119.146681
5.500000	-0.214440	-82.362991	-17.059570	-8.907668	-17.059570	-8.907668	-0.269151	-120.099885
5.550000	-0.217455	-83.028448	-17.004986	-9.658588	-17.004986	-9.658588	-0.272892	-121.051684
5.600000	-0.220505	-83.692390	-16.950818	-10.407590	-16.950818	-10.407590	-0.276677	-122.002138
5.650000	-0.223591	-84.354824	-16.897045	-11.154722	-16.897045	-11.154722	-0.280505	-122.951306
5.700000	-0.226713	-85.015761	-16.843649	-11.900033	-16.843649	-11.900033	-0.284377	-123.899250
5.750000	-0.229873	-85.675211	-16.790610	-12.643574	-16.790610	-12.643574	-0.288294	-124.846030
5.800000	-0.233071	-86.333183	-16.737911	-13.385395	-16.737911	-13.385395	-0.292256	-125.791709
5.850000	-0.236316	-86.989437	-16.685530	-14.125275	-16.685530	-14.125275	-0.296273	-126.736188
5.900000	-0.239602	-87.644173	-16.633452	-14.863470	-16.633452	-14.863470	-0.300339	-127.679652
5.950000	-0.242910	-88.298160	-16.581667	-15.600873	-16.581667	-15.600873	-0.304431	-128.622666
6.000000	-0.246284	-88.949900	-16.530136	-16.335896	-16.530136	-16.335896	-0.308597	-129.564334
6.050000	-0.249673	-89.601149	-16.478887	-17.070431	-16.478887	-17.070431	-0.312783	-130.505749
6.100000	-0.253138	-90.249946	-16.427832	-17.802523	-16.427832	-17.802523	-0.317053	-131.445906
6.150000	-0.256611	-90.898501	-16.377060	-18.534391	-16.377060	-18.534391	-0.321335	-132.385962
6.200000	-0.260171	-91.544408	-16.326414	-19.263799	-16.326414	-19.263799	-0.325714	-133.324902
6.250000	-0.263732	-92.190315	-16.276062	-19.993207	-16.276062	-19.993207	-0.330094	-134.263841
6.300000	-0.267366	-92.834090	-16.225828	-20.720761	-16.225828	-20.720761	-0.334557	-135.202054
6.350000	-0.271049	-93.476521	-16.175756	-21.447212	-16.175756	-21.447212	-0.339074	-136.139898
6.400000	-0.274781	-94.117621	-16.125831	-22.172623	-16.125831	-22.172623	-0.343646	-137.077445
6.450000	-0.278564	-94.757404	-16.076040	-22.897053	-16.076040	-22.897053	-0.348273	-138.014764
6.500000	-0.282399	-95.395884	-16.026370	-23.620564	-16.026370	-23.620564	-0.352958	-138.951927
6.550000	-0.286286	-96.033075	-15.976808	-24.343220	-15.976808	-24.343220	-0.357699	-139.889005
6.600000	-0.290226	-96.668990	-15.927341	-25.065083	-15.927341	-25.065083	-0.362500	-140.826072
6.650000	-0.294220	-97.303644	-15.877956	-25.786217	-15.877956	-25.786217	-0.367359	-141.763201
6.700000	-0.298270	-97.937051	-15.828642	-26.506688	-15.828642	-26.506688	-0.372278	-142.700465
6.750000	-0.302377	-98.569226	-15.779386	-27.226560	-15.779386	-27.226560	-0.377259	-143.637939
6.800000	-0.306541	-99.200183	-15.730179	-27.945901	-15.730179	-27.945901	-0.382301	-144.575698
6.850000	-0.310763	-99.829936	-15.681007	-28.664776	-15.681007	-28.664776	-0.387406	-145.513817
6.900000	-0.315044	-100.458501	-15.631861	-29.383255	-15.631861	-29.383255	-0.392574	-146.452374
6.950000	-0.319387	-101.085893	-15.582729	-30.101404	-15.582729	-30.101404	-0.397807	-147.391444
7.000000	-0.323790	-101.712125	-15.533603	-30.819293	-15.533603	-30.819293	-0.403105	-148.331106
7.050000	-0.328257	-102.337214	-15.484471	-31.536993	-15.484471	-31.536993	-0.408469	-149.271438
7.100000	-0.332787	-102.961175	-15.435324	-32.254573	-15.435324	-32.254573	-0.413900	-150.212518
7.150000	-0.337381	-103.584022	-15.386153	-32.972105	-15.386153	-32.972105	-0.419399	-151.154427
7.200000	-0.342042	-104.205772	-15.336949	-33.689661	-15.336949	-33.689661	-0.424967	-152.097244
7.250000	-0.346770	-104.826439	-15.287703	-34.407312	-15.287703	-34.407312	-0.430604	-153.041050
7.300000	-0.351566	-105.446038	-15.238406	-35.125134	-15.238406	-35.125134	-0.436313	-153.985926
7.350000	-0.356431	-106.064587	-15.189051	-35.843198	-15.189051	-35.843198	-0.442093	-154.931955
7.400000	-0.361367	-106.682099	-15.139630	-36.561580	-15.139630	-36.561580	-0.447945	-155.879219
7.450000	-0.366374	-107.298591	-15.090135	-37.280356	-15.090135	-37.280356	-0.453871	-156.827802
7.500000	-0.371454	-107.914079	-15.040559	-37.999600	-15.040559	-37.999600	-0.459871	-157.777787
7.550000	-0.376612	-108.528535	-14.990879	-38.719416	-14.990879	-38.719416	-0.465949	-158.729328
7.600000	-0.381845	-109.142020	-14.941104	-39.439862	-14.941104	-39.439862	-0.472104	-159.682449
7.650000	-0.387154	-109.754549	-14.891228	-40.161015	-14.891228	-40.161015	-0.478335	-160.637237
7.700000	-0.392542	-110.366138	-14.841245	-40.882952	-14.841245	-40.882952	-0.484645	-161.593777
7.750000	-0.398008	-110.976803	-14.791150	-41.605754	-14.791150	-41.605754	-0.491034	-162.552157
7.800000	-0.403556	-111.586560	-14.740937	-42.329498	-14.740937	-42.329498	-0.497502	-163.512465
7.850000	-0.409184	-112.195425	-14.690603	-43.054265	-14.690603	-43.054265	-0.504052	-164.474789
7.900000	-0.414896	-112.803414	-14.640141	-43.780135	-14.640141	-43.780135	-0.510683	-165.439219
7.950000	-0.420693	-113.410543	-14.589549	-44.507188	-14.589549	-44.507188	-0.517396	-166.405845
8.000000	-0.426575	-114.016828	-14.538823	-45.235505	-14.538823	-45.235505	-0.524194	-167.374756
8.050000	-0.432545	-114.622284	-14.487960	-45.965168	-14.487960	-45.965168	-0.531075	-168.346044
8.100000	-0.438603	-115.226929	-14.436956	-46.696257	-14.436956	-46.696257	-0.538042	-169.319801
8.150000	-0.444750	-115.830778	-14.385809	-47.428856	-14.385809	-47.428856	-0.545095	-170.296118
8.200000	-0.450990	-116.433846	-14.334518	-48.163045	-14.334518	-48.163045	-0.552235	-171.275089
8.250000	-0.457322	-117.036151	-14.283080	-48.898907	-14.283080	-48.898907	-0.559463	-172.256807
8.300000	-0.463748	-117.637707	-14.231494	-49.636525	-14.231494	-49.636525	-0.566780	-173.241366
8.350000	-0.470270	-118.238532	-14.179760	-50.375981	-14.179760	-50.375981	-0.574186	-174.228860
8.400000	-0.476890	-118.838640	-14.127877	-51.117356	-14.127877	-51.117356	-0.581683	-175.219386
8.450000	-0.483608	-119.438049	-14.075846	-51.860733	-14.075846	-51.860733	-0.589271	-176.213038
8.500000	-0.490426	-120.036773	-14.023667	-52.606194	-14.023667	-52.606194	-0.596952	-177.209914
8.550000	-0.497346	-120.634828	-13.971342	-53.353822	-13.971342	-53.353822	-0.604725	-178.210109
8.600000	-0.504369	-121.232231	-13.918871	-54.103696	-13.918871	-54.103696	-0.612592	-179.213721
8.650000	-0.511498	-121.828997	-13.866258	-54.855898	-13.866258	-54.855898	-0.620553	179.779152
8.700000	-0.518732	-122.425143	-13.813504	-55.610509	-13.813504	-55.610509	-0.628609	178.768412
8.750000	-0.526075	-123.020683	-13.760614	-56.367608	-13.760614	-56.367608	-0.636762	177.753960
8.800000	-0.533532	-123.615608	-13.707571	-57.127390	-13.707571	-57.127390	-0.645014	176.735526
8.850000	-0.541100	-124.209960	-13.654400	-57.889824	-13.654400	-57.889824	-0.653364	175.713172
8.900000	-0.548782	-124.803756	-13.601106	-58.654987	-13.601106	-58.654987	-0.661812	174.686799
8.950000	-0.556578	-125.397010	-13.547695	-59.422954	-13.547695	-59.422954	-0.670359	173.656305
9.000000	-0.564490	-125.989737	-13.494174	-60.193801	-13.494174	-60.193801	-0.679004	172.621591
9.050000	-0.572521	-126.581953	-13.440548	-60.967599	-13.440548	-60.967599	-0.687749	171.582555
9.100000	-0.580671	-127.173674	-13.386826	-61.744419	-13.386826	-61.744419	-0.696594	170.539095
9.150000	-0.588943	-127.764914	-13.333017	-62.524332	-13.333017	-62.524332	-0.705539	169.491112
9.200000	-0.597338	-128.355688	-13.279129	-63.307403	-13.279129	-63.307403	-0.714586	168.438502
9.250000	-0.605858	-128.946012	-13.225173	-64.093698	-13.225173	-64.093698	-0.723734	167.381165
9.300000	-0.614504	-129.535900	-13.171159	-64.883280	-13.171159	-64.883280	-0.732983	166.318998
9.350000	-0.623280	-130.125367	-13.117098	-65.676206	-13.117098	-65.676206	-0.742335	165.251900
9.400000	-0.632185	-130.714428	-13.063003	-66.472535	-13.063003	-66.472535	-0.751788	164.179769
9.450000	-0.641223	-131.303097	-13.008887	-67.272320	-13.008887	-67.272320	-0.761344	163.102503
9.500000	-0.650395	-131.891390	-12.954763	-68.075610	-12.954763	-68.075610	-0.771002	162.020001
9.550000	-0.659702	-132.479319	-12.900646	-68.882451	-12.900646	-68.882451	-0.780762	160.932162
9.600000	-0.669147	-133.066900	-12.846551	-69.692886	-12.846551	-69.692886	-0.790625	159.838884
9.650000	-0.678732	-133.654147	-12.792496	-70.506952	-12.792496	-70.506952	-0.800590	158.740066
9.700000	-0.688458	-134.241074	-12.738496	-71.324682	-12.738496	-71.324682	-0.810657	157.635609
9.750000	-0.698327	-134.827694	-12.684571	-72.146105	-12.684571	-72.146105	-0.820826	156.525413
9.800000	-0.708341	-135.414022	-12.630740	-72.971242	-12.630740	-72.971242	-0.831097	155.409378
9.850000	-0.718503	-136.000071	-12.577022	-73.800110	-12.577022	-73.800110	-0.841469	154.287406
9.900000	-0.728813	-136.585855	-12.523438	-74.632721	-12.523438	-74.632721	-0.851941	153.159399
9.950000	-0.739275	-137.171386	-12.470011	-75.469078	-12.470011	-75.469078	-0.862513	152.025260
10.000000	-0.749889	-137.756679	-12.416763	-76.309179	-12.416763	-76.309179	-0.873184	150.884893
