! freq	dB(S11)	phase(S11)	dB(S12)	phase(S12)	
!     	dB(S21)	phase(S21)	dB(S22)	phase(S22)	
!S-par simulation data
#  GHz  S  DB  R 50
0.000000	-0.000000	0.000000	-329.013452	0.000000	-329.013452	0.000000	-0.000000	0.000000
0.050000	-0.000098	-0.775820	-71.641571	87.657460	-71.641571	87.657460	-0.000098	-0.775837
0.100000	-0.000387	-1.551404	-65.797492	86.732307	-65.797492	86.732307	-0.000387	-1.551438
0.150000	-0.000862	-2.326516	-62.369299	86.207689	-62.369299	86.207689	-0.000862	-2.326566
0.200000	-0.001491	-3.101014	-59.919422	85.687448	-59.919422	85.687448	-0.001492	-3.101081
0.250000	-0.002262	-3.874734	-58.010004	85.116891	-58.010004	85.116891	-0.002262	-3.874819
0.300000	-0.003160	-4.647476	-56.445777	84.497437	-56.445777	84.497437	-0.003160	-4.647577
0.350000	-0.004143	-5.419322	-55.121585	83.848102	-55.121585	83.848102	-0.004143	-5.419440
0.400000	-0.005204	-6.190096	-53.974282	83.173353	-53.974282	83.173353	-0.005204	-6.190230
0.450000	-0.006315	-6.959877	-52.962644	82.482211	-52.962644	82.482211	-0.006315	-6.960028
0.500000	-0.007461	-7.728632	-52.058531	81.778487	-52.058531	81.778487	-0.007461	-7.728800
0.550000	-0.008628	-8.496392	-51.241725	81.065637	-51.241725	81.065637	-0.008628	-8.496576
0.600000	-0.009803	-9.263189	-50.497259	80.346034	-50.497259	80.346034	-0.009803	-9.263390
0.650000	-0.010978	-10.029059	-49.813738	79.621423	-49.813738	79.621423	-0.010978	-10.029276
0.700000	-0.012147	-10.794035	-49.182286	78.893116	-49.182286	78.893116	-0.012147	-10.794269
0.750000	-0.013304	-11.558152	-48.595856	78.162123	-48.595856	78.162123	-0.013305	-11.558403
0.800000	-0.014448	-12.321437	-48.048756	77.429238	-48.048756	77.429238	-0.014449	-12.321704
0.850000	-0.015574	-13.083776	-47.536761	76.695030	-47.536761	76.695030	-0.015574	-13.084060
0.900000	-0.016683	-13.845291	-47.055630	75.960072	-47.055630	75.960072	-0.016683	-13.845590
0.950000	-0.017784	-14.606401	-46.600984	75.225105	-46.600984	75.225105	-0.017784	-14.606717
1.000000	-0.018861	-15.366300	-46.172462	74.490112	-46.172462	74.490112	-0.018861	-15.366632
1.050000	-0.019933	-16.125931	-45.764911	73.755336	-45.764911	73.755336	-0.019934	-16.126279
1.100000	-0.020982	-16.884221	-45.379550	73.021646	-45.379550	73.021646	-0.020982	-16.884586
1.150000	-0.022029	-17.642375	-45.010971	72.288150	-45.010971	72.288150	-0.022030	-17.642756
1.200000	-0.023055	-18.399032	-44.661722	71.556797	-44.661722	71.556797	-0.023056	-18.399429
1.250000	-0.024081	-19.155688	-44.325975	70.825443	-44.325975	70.825443	-0.024082	-19.156101
1.300000	-0.025094	-19.911090	-44.006220	70.096381	-44.006220	70.096381	-0.025095	-19.911519
1.350000	-0.026099	-20.665672	-43.700078	69.369026	-43.700078	69.369026	-0.026100	-20.666117
1.400000	-0.027098	-21.419418	-43.406611	68.643536	-43.406611	68.643536	-0.027099	-21.419879
1.450000	-0.028092	-22.172313	-43.124982	67.920062	-43.124982	67.920062	-0.028093	-22.172790
1.500000	-0.029081	-22.924339	-42.854434	67.198747	-42.854434	67.198747	-0.029082	-22.924832
1.550000	-0.030066	-23.675478	-42.594287	66.479728	-42.594287	66.479728	-0.030067	-23.675987
1.600000	-0.031049	-24.425714	-42.343925	65.763137	-42.343925	65.763137	-0.031050	-24.426239
1.650000	-0.032029	-25.175027	-42.102786	65.049101	-42.102786	65.049101	-0.032030	-25.175568
1.700000	-0.033006	-25.923064	-41.871145	64.338731	-41.871145	64.338731	-0.033007	-25.923621
1.750000	-0.033983	-26.670604	-41.646656	63.629801	-41.646656	63.629801	-0.033984	-26.671176
1.800000	-0.034959	-27.416945	-41.430491	62.924479	-41.430491	62.924479	-0.034960	-27.417533
1.850000	-0.035935	-28.162430	-41.221437	62.221733	-41.221437	62.221733	-0.035936	-28.163033
1.900000	-0.036910	-28.906847	-41.019559	61.522327	-41.019559	61.522327	-0.036911	-28.907467
1.950000	-0.037886	-29.650198	-40.824478	60.826260	-40.824478	60.826260	-0.037887	-29.650833
2.000000	-0.038862	-30.392627	-40.635546	60.133176	-40.635546	60.133176	-0.038863	-30.393278
2.050000	-0.039839	-31.133767	-40.453188	59.444267	-40.453188	59.444267	-0.039841	-31.134433
2.100000	-0.040818	-31.874144	-40.276049	58.757900	-40.276049	58.757900	-0.040819	-31.874826
2.150000	-0.041798	-32.612997	-40.105332	58.076616	-40.105332	58.076616	-0.041799	-32.613694
2.200000	-0.042779	-33.351261	-39.938991	57.397353	-39.938991	57.397353	-0.042780	-33.351973
2.250000	-0.043763	-34.087755	-39.778971	56.724154	-39.778971	56.724154	-0.043765	-34.088483
2.300000	-0.044748	-34.823846	-39.622557	56.052377	-39.622557	56.052377	-0.044750	-34.824589
2.350000	-0.045738	-35.557912	-39.472405	55.387713	-39.472405	55.387713	-0.045739	-35.558670
2.400000	-0.046728	-36.291771	-39.325154	54.723797	-39.325154	54.723797	-0.046730	-36.292544
2.450000	-0.047724	-37.023343	-39.184135	54.068115	-39.184135	54.068115	-0.047726	-37.024131
2.500000	-0.048720	-37.754915	-39.045370	53.412433	-39.045370	53.412433	-0.048722	-37.755718
2.550000	-0.049724	-38.483928	-38.912831	52.766175	-38.912831	52.766175	-0.049726	-38.484747
2.600000	-0.050728	-39.212942	-38.782283	52.119917	-38.782283	52.119917	-0.050730	-39.213775
2.650000	-0.051740	-39.939554	-38.657299	51.482698	-38.657299	51.482698	-0.051741	-39.940403
2.700000	-0.052752	-40.665948	-38.534414	50.846301	-38.534414	50.846301	-0.052754	-40.666812
2.750000	-0.053773	-41.390112	-38.416469	50.218483	-38.416469	50.218483	-0.053775	-41.390990
2.800000	-0.054796	-42.113829	-38.300742	49.592381	-38.300742	49.592381	-0.054798	-42.114722
2.850000	-0.055828	-42.835497	-38.189369	48.974323	-38.189369	48.974323	-0.055829	-42.836405
2.900000	-0.056862	-43.556483	-38.080340	48.358946	-38.080340	48.358946	-0.056864	-43.557406
2.950000	-0.057905	-44.275613	-37.975114	47.751005	-37.975114	47.751005	-0.057906	-44.276550
3.000000	-0.058952	-44.993815	-37.872361	47.146781	-37.872361	47.146781	-0.058953	-44.994767
3.050000	-0.060007	-45.710366	-37.772893	46.549310	-37.772893	46.549310	-0.060009	-45.711332
3.100000	-0.061068	-46.425736	-37.676025	45.956662	-37.676025	45.956662	-0.061070	-46.426717
3.150000	-0.062137	-47.139668	-37.581958	45.370012	-37.581958	45.370012	-0.062139	-47.140663
3.200000	-0.063214	-47.852161	-37.490613	44.789360	-37.490613	44.789360	-0.063216	-47.853171
3.250000	-0.064298	-48.563438	-37.401615	44.213878	-37.401615	44.213878	-0.064300	-48.564462
3.300000	-0.065392	-49.273011	-37.315454	43.645636	-37.315454	43.645636	-0.065394	-49.274050
3.350000	-0.066493	-49.981599	-37.231217	43.081667	-37.231217	43.081667	-0.066495	-49.982651
3.400000	-0.067605	-50.688213	-37.149922	42.526244	-37.149922	42.526244	-0.067607	-50.689280
3.450000	-0.068723	-51.394079	-37.070157	41.974127	-37.070157	41.974127	-0.068725	-51.395160
3.500000	-0.069856	-52.097699	-36.993426	41.431927	-36.993426	41.431927	-0.069858	-52.098794
3.550000	-0.070993	-52.800813	-36.917864	40.891997	-36.917864	40.891997	-0.070995	-52.801923
3.600000	-0.072147	-53.501405	-36.845411	40.363417	-36.845411	40.363417	-0.072150	-53.502528
3.650000	-0.073304	-54.201741	-36.773794	39.836004	-36.773794	39.836004	-0.073306	-54.202879
3.700000	-0.074482	-54.899275	-36.705344	39.321431	-36.705344	39.321431	-0.074485	-54.900426
3.750000	-0.075661	-55.596808	-36.637430	38.806858	-36.637430	38.806858	-0.075663	-55.597973
3.800000	-0.076864	-56.291257	-36.572720	38.306670	-36.572720	38.306670	-0.076866	-56.292436
3.850000	-0.078067	-56.985705	-36.508488	37.806482	-36.508488	37.806482	-0.078069	-56.986898
3.900000	-0.079295	-57.677304	-36.447051	37.319815	-36.447051	37.319815	-0.079297	-57.678511
3.950000	-0.080524	-58.368645	-36.386254	36.834378	-36.386254	36.834378	-0.080527	-58.369865
4.000000	-0.081778	-59.057377	-36.327865	36.361527	-36.327865	36.361527	-0.081780	-59.058611
4.050000	-0.083036	-59.745588	-36.270261	35.891193	-36.270261	35.891193	-0.083039	-59.746836
4.100000	-0.084317	-60.431439	-36.214707	35.432438	-36.214707	35.432438	-0.084319	-60.432700
4.150000	-0.085605	-61.116504	-36.160059	34.977543	-36.160059	34.977543	-0.085608	-61.117778
4.200000	-0.086914	-61.799461	-36.107129	34.533151	-36.107129	34.533151	-0.086917	-61.800749
4.250000	-0.088234	-62.481365	-36.055204	34.094011	-36.055204	34.094011	-0.088237	-62.482666
4.300000	-0.089573	-63.161418	-36.004694	33.664233	-36.004694	33.664233	-0.089576	-63.162733
4.350000	-0.090926	-63.840149	-35.955263	33.241142	-35.955263	33.241142	-0.090929	-63.841477
4.400000	-0.092297	-64.517291	-35.906972	32.826209	-35.906972	32.826209	-0.092300	-64.518632
4.450000	-0.093685	-65.192841	-35.859806	32.419435	-35.859806	32.419435	-0.093688	-65.194196
4.500000	-0.095088	-65.867065	-35.813537	32.019559	-35.813537	32.019559	-0.095091	-65.868432
4.550000	-0.096513	-66.539429	-35.768410	31.629340	-35.768410	31.629340	-0.096516	-66.540810
4.600000	-0.097950	-67.210731	-35.723968	31.244707	-35.723968	31.244707	-0.097953	-67.212125
4.650000	-0.099413	-67.879908	-35.680653	30.871245	-35.680653	30.871245	-0.099416	-67.881315
4.700000	-0.100886	-68.548287	-35.637844	30.502014	-35.637844	30.502014	-0.100889	-68.549707
4.750000	-0.102389	-69.214275	-35.596115	30.145474	-35.596115	30.145474	-0.102392	-69.215709
4.800000	-0.103899	-69.879733	-35.554747	29.791774	-35.554747	29.791774	-0.103902	-69.881179
4.850000	-0.105444	-70.542537	-35.514378	29.452274	-35.514378	29.452274	-0.105447	-70.543996
4.900000	-0.106992	-71.205076	-35.474260	29.114200	-35.474260	29.114200	-0.106995	-71.206548
4.950000	-0.108580	-71.864701	-35.435024	28.791808	-35.435024	28.791808	-0.108583	-71.866186
5.000000	-0.110168	-72.524326	-35.395964	28.469416	-35.395964	28.469416	-0.110171	-72.525824
5.050000	-0.111801	-73.180782	-35.357632	28.164144	-35.357632	28.164144	-0.111804	-73.182292
5.100000	-0.113434	-73.837237	-35.319469	27.858871	-35.319469	27.858871	-0.113437	-73.838761
5.150000	-0.115109	-74.490798	-35.281784	27.569244	-35.281784	27.569244	-0.115113	-74.492334
5.200000	-0.116789	-75.144095	-35.244291	27.281039	-35.244291	27.281039	-0.116792	-75.145644
5.250000	-0.118508	-75.794773	-35.207061	27.006956	-35.207061	27.006956	-0.118512	-75.796335
5.300000	-0.120236	-76.444927	-35.170010	26.735697	-35.170010	26.735697	-0.120240	-76.446501
5.350000	-0.122002	-77.092735	-35.133042	26.477000	-35.133042	26.477000	-0.122005	-77.094322
5.400000	-0.123780	-77.739762	-35.096207	26.222490	-35.096207	26.222490	-0.123783	-77.741361
5.450000	-0.125592	-78.384716	-35.059311	25.978960	-35.059311	25.978960	-0.125595	-78.386329
5.500000	-0.127421	-79.028635	-35.022463	25.740919	-35.022463	25.740919	-0.127425	-79.030260
5.550000	-0.129281	-79.670754	-34.985449	25.512272	-34.985449	25.512272	-0.129285	-79.672392
5.600000	-0.131164	-80.311587	-34.948364	25.290333	-34.948364	25.290333	-0.131168	-80.313237
5.650000	-0.133074	-80.950889	-34.911046	25.076215	-34.911046	25.076215	-0.133078	-80.952552
5.700000	-0.135012	-81.588660	-34.873499	24.869917	-34.873499	24.869917	-0.135016	-81.590336
5.750000	-0.136973	-82.225167	-34.835693	24.669902	-34.835693	24.669902	-0.136977	-82.226855
5.800000	-0.138967	-82.859903	-34.797465	24.478685	-34.797465	24.478685	-0.138971	-82.861603
5.850000	-0.140980	-83.493637	-34.758992	24.292274	-34.758992	24.292274	-0.140984	-83.495350
5.900000	-0.143032	-84.125366	-34.719867	24.115477	-34.719867	24.115477	-0.143036	-84.127092
5.950000	-0.145099	-84.756352	-34.680552	23.942094	-34.680552	23.942094	-0.145104	-84.758090
6.000000	-0.147211	-85.385107	-34.640322	23.778952	-34.640322	23.778952	-0.147215	-85.386857
6.050000	-0.149333	-86.013371	-34.599998	23.617940	-34.599998	23.617940	-0.149337	-86.015134
6.100000	-0.151506	-86.639183	-34.558463	23.467584	-34.558463	23.467584	-0.151510	-86.640958
6.150000	-0.153684	-87.264753	-34.516967	23.318213	-34.516967	23.318213	-0.153689	-87.266541
6.200000	-0.155920	-87.887659	-34.473937	23.179671	-34.473937	23.179671	-0.155925	-87.889459
6.250000	-0.158156	-88.510565	-34.431119	23.041130	-34.431119	23.041130	-0.158161	-88.512377
6.300000	-0.160456	-89.130601	-34.386415	22.913332	-34.386415	22.913332	-0.160461	-89.132426
6.350000	-0.162757	-89.750638	-34.341940	22.785533	-34.341940	22.785533	-0.162762	-89.752475
6.400000	-0.165118	-90.368080	-34.295592	22.666516	-34.295592	22.666516	-0.165123	-90.369930
6.450000	-0.167485	-90.985287	-34.249299	22.548296	-34.249299	22.548296	-0.167490	-90.987149
6.500000	-0.169907	-91.600170	-34.201188	22.437017	-34.201188	22.437017	-0.169912	-91.602045
6.550000	-0.172342	-92.214588	-34.152932	22.327126	-34.152932	22.327126	-0.172347	-92.216475
6.600000	-0.174827	-92.826947	-34.102957	22.222487	-34.102957	22.222487	-0.174833	-92.828847
6.650000	-0.177331	-93.438620	-34.052609	22.119598	-34.052609	22.119598	-0.177336	-93.440533
6.700000	-0.179881	-94.048493	-34.000683	22.020453	-34.000683	22.020453	-0.179886	-94.050418
6.750000	-0.182455	-94.657466	-33.948136	21.923179	-33.948136	21.923179	-0.182461	-94.659403
6.800000	-0.185071	-95.264891	-33.894188	21.828342	-33.894188	21.828342	-0.185077	-95.266841
6.850000	-0.187717	-95.871210	-33.839354	21.735246	-33.839354	21.735246	-0.187723	-95.873173
6.900000	-0.190400	-96.476228	-33.783332	21.643505	-33.783332	21.643505	-0.190406	-96.478203
6.950000	-0.193120	-97.079943	-33.726145	21.553119	-33.726145	21.553119	-0.193126	-97.081930
7.000000	-0.195871	-97.682593	-33.668013	21.463243	-33.668013	21.463243	-0.195877	-97.684593
7.050000	-0.198666	-98.283754	-33.608432	21.374084	-33.608432	21.374084	-0.198672	-98.285767
7.100000	-0.201486	-98.884080	-33.548172	21.284841	-33.548172	21.284841	-0.201493	-98.886106
7.150000	-0.204358	-99.482739	-33.486175	21.195430	-33.486175	21.195430	-0.204364	-99.484777
7.200000	-0.207249	-100.080785	-33.423789	21.105593	-33.423789	21.105593	-0.207256	-100.082836
7.250000	-0.210199	-100.676995	-33.359380	21.014476	-33.359380	21.014476	-0.210205	-100.679058
7.300000	-0.213162	-101.272806	-33.294886	20.922840	-33.294886	20.922840	-0.213168	-101.274882
7.350000	-0.216191	-101.866622	-33.228090	20.828604	-33.228090	20.828604	-0.216197	-101.868711
7.400000	-0.219227	-102.460243	-33.161522	20.733996	-33.161522	20.733996	-0.219234	-102.462345
7.450000	-0.222337	-103.051723	-33.092387	20.635290	-33.092387	20.635290	-0.222343	-103.053838
7.500000	-0.225447	-103.643203	-33.023797	20.536583	-33.023797	20.536583	-0.225454	-103.645330
7.550000	-0.228639	-104.232404	-32.952388	20.432131	-32.952388	20.432131	-0.228646	-104.234544
7.600000	-0.231832	-104.821605	-32.881562	20.327678	-32.881562	20.327678	-0.231839	-104.823759
7.650000	-0.235101	-105.408773	-32.808247	20.216874	-32.808247	20.216874	-0.235108	-105.410939
7.700000	-0.238377	-105.995756	-32.735269	20.105492	-32.735269	20.105492	-0.238384	-105.997935
7.750000	-0.241724	-106.580941	-32.660144	19.987439	-32.660144	19.987439	-0.241731	-106.583133
7.800000	-0.245085	-107.165766	-32.585117	19.868051	-32.585117	19.868051	-0.245092	-107.167971
7.850000	-0.248510	-107.749020	-32.508289	19.741939	-32.508289	19.741939	-0.248518	-107.751239
7.900000	-0.251958	-108.331751	-32.431328	19.613584	-32.431328	19.613584	-0.251966	-108.333983
7.950000	-0.255464	-108.913128	-32.352912	19.478695	-32.352912	19.478695	-0.255471	-108.915373
8.000000	-0.258999	-109.493829	-32.274143	19.340538	-32.274143	19.340538	-0.259006	-109.496087
8.050000	-0.262585	-110.073383	-32.194262	19.196251	-32.194262	19.196251	-0.262593	-110.075654
8.100000	-0.266209	-110.652118	-32.113821	19.047586	-32.113821	19.047586	-0.266217	-110.654403
8.150000	-0.269878	-111.229904	-32.032600	18.893381	-32.032600	18.893381	-0.269886	-111.232203
8.200000	-0.273591	-111.806742	-31.950629	18.733635	-31.950629	18.733635	-0.273600	-111.809054
8.250000	-0.277343	-112.382817	-31.868198	18.569089	-31.868198	18.569089	-0.277352	-112.385143
8.300000	-0.281148	-112.957824	-31.784842	18.397824	-31.784842	18.397824	-0.281157	-112.960164
8.350000	-0.284984	-113.532246	-31.701331	18.222616	-31.701331	18.222616	-0.284993	-113.534599
8.400000	-0.288881	-114.105493	-31.616738	18.039524	-31.616738	18.039524	-0.288890	-114.107861
8.450000	-0.292802	-114.678319	-31.532276	17.853430	-31.532276	17.853430	-0.292811	-114.680700
8.500000	-0.296793	-115.249878	-31.446591	17.658331	-31.446591	17.658331	-0.296802	-115.252273
8.550000	-0.300800	-115.821167	-31.361304	17.461222	-31.361304	17.461222	-0.300809	-115.823577
8.600000	-0.304885	-116.391110	-31.274670	17.254059	-31.274670	17.254059	-0.304894	-116.393533
8.650000	-0.308979	-116.960924	-31.188680	17.045896	-31.188680	17.045896	-0.308988	-116.963362
8.700000	-0.313159	-117.529324	-31.101235	16.826724	-31.101235	16.826724	-0.313168	-117.531776
8.750000	-0.317341	-118.097724	-31.014660	16.607553	-31.014660	16.607553	-0.317350	-118.100190
8.800000	-0.321617	-118.664657	-30.926533	16.376536	-30.926533	16.376536	-0.321627	-118.667138
8.850000	-0.325896	-119.231590	-30.839291	16.145518	-30.839291	16.145518	-0.325905	-119.234085
8.900000	-0.330262	-119.797248	-30.750797	15.903876	-30.750797	15.903876	-0.330271	-119.799758
8.950000	-0.334637	-120.362791	-30.663006	15.661269	-30.663006	15.661269	-0.334647	-120.365315
9.000000	-0.339093	-120.927239	-30.574243	15.409288	-30.574243	15.409288	-0.339103	-120.929779
9.050000	-0.343567	-121.491469	-30.486012	15.155434	-30.486012	15.155434	-0.343578	-121.494024
9.100000	-0.348115	-122.054774	-30.397066	14.893456	-30.397066	14.893456	-0.348125	-122.057344
9.150000	-0.352688	-122.617771	-30.308493	14.628772	-30.308493	14.628772	-0.352698	-122.620356
9.200000	-0.357326	-123.180000	-30.219442	14.357188	-30.219442	14.357188	-0.357337	-123.182600
9.250000	-0.361999	-123.741845	-30.130615	14.082155	-30.130615	14.082155	-0.362010	-123.744460
9.300000	-0.366730	-124.303066	-30.041525	13.801397	-30.041525	13.801397	-0.366741	-124.305697
9.350000	-0.371503	-124.863842	-29.952518	13.516550	-29.952518	13.516550	-0.371514	-124.866488
9.400000	-0.376327	-125.424124	-29.863447	13.227085	-29.863447	13.227085	-0.376338	-125.426786
9.450000	-0.381201	-125.983914	-29.774322	12.933003	-29.774322	12.933003	-0.381212	-125.986592
9.500000	-0.386118	-126.543329	-29.685315	12.635327	-29.685315	12.635327	-0.386130	-126.546022
9.550000	-0.391094	-127.102218	-29.596121	12.332620	-29.596121	12.332620	-0.391106	-127.104928
9.600000	-0.396105	-127.660837	-29.507216	12.027251	-29.507216	12.027251	-0.396117	-127.663563
9.650000	-0.401183	-128.218913	-29.417988	11.716557	-29.417988	11.716557	-0.401195	-128.221656
9.700000	-0.406289	-128.776809	-29.329211	11.404029	-29.329211	11.404029	-0.406301	-128.779567
9.750000	-0.411469	-129.334161	-29.239973	11.085998	-29.239973	11.085998	-0.411481	-129.336936
9.800000	-0.416669	-129.891408	-29.151340	10.766855	-29.151340	10.766855	-0.416681	-129.894199
9.850000	-0.421953	-130.448126	-29.062103	10.442148	-29.062103	10.442148	-0.421965	-130.450935
9.900000	-0.427248	-131.004799	-28.973621	10.116939	-28.973621	10.116939	-0.427260	-131.007624
9.950000	-0.432635	-131.560975	-28.884381	9.786216	-28.884381	9.786216	-0.432647	-131.563818
10.000000	-0.438025	-132.117151	-28.796049	9.455493	-28.796049	9.455493	-0.438037	-132.120011
