! freq	dB(S11)	phase(S11)	dB(S12)	phase(S12)	
!     	dB(S21)	phase(S21)	dB(S22)	phase(S22)	
!S-par simulation data
#  GHz  S  DB  R 50
0.000000	-0.000000	-0.000000	-310.228178	180.000000	-310.228178	180.000000	-0.000000	0.000000
0.050000	-0.000098	-0.773232	-72.726311	87.079065	-72.726311	87.079065	-0.000098	-0.773389
0.100000	-0.000387	-1.546229	-66.930809	86.422493	-66.930809	86.422493	-0.000387	-1.546543
0.150000	-0.000861	-2.318755	-63.505437	86.061599	-63.505437	86.061599	-0.000861	-2.319224
0.200000	-0.001490	-3.090667	-61.052713	85.616927	-61.052713	85.616927	-0.001490	-3.091292
0.250000	-0.002259	-3.861803	-59.140720	85.083048	-59.140720	85.083048	-0.002260	-3.862584
0.300000	-0.003156	-4.631960	-57.574810	84.483017	-57.574810	84.483017	-0.003157	-4.632896
0.350000	-0.004138	-5.401225	-56.249617	83.846656	-56.249617	83.846656	-0.004140	-5.402316
0.400000	-0.005197	-6.169419	-55.101824	83.180868	-55.101824	83.180868	-0.005199	-6.170664
0.450000	-0.006306	-6.936623	-54.090041	82.496784	-54.090041	82.496784	-0.006308	-6.938022
0.500000	-0.007450	-7.702804	-53.186049	81.798959	-53.186049	81.798959	-0.007453	-7.704356
0.550000	-0.008614	-8.467992	-52.369570	81.091336	-52.369570	81.091336	-0.008618	-8.469697
0.600000	-0.009787	-9.232221	-51.625598	80.376557	-51.625598	80.376557	-0.009791	-9.234078
0.650000	-0.010960	-9.995526	-50.942712	79.656530	-50.942712	79.656530	-0.010964	-9.997535
0.700000	-0.012126	-10.757942	-50.312020	78.932671	-50.312020	78.932671	-0.012131	-10.760102
0.750000	-0.013281	-11.519501	-49.726460	78.206062	-49.726460	78.206062	-0.013286	-11.521813
0.800000	-0.014422	-12.280232	-49.180335	77.477548	-49.180335	77.477548	-0.014428	-12.282695
0.850000	-0.015545	-13.040022	-48.669450	76.747746	-48.669450	76.747746	-0.015551	-13.042636
0.900000	-0.016651	-13.798992	-48.189527	76.017250	-48.189527	76.017250	-0.016657	-13.801756
0.950000	-0.017749	-14.557560	-47.736078	75.286792	-47.736078	75.286792	-0.017756	-14.560474
1.000000	-0.018823	-15.314923	-47.308959	74.556451	-47.308959	74.556451	-0.018830	-15.317987
1.050000	-0.019892	-16.072019	-46.902757	73.826370	-46.902757	73.826370	-0.019900	-16.075233
1.100000	-0.020938	-16.827783	-46.518984	73.097594	-46.518984	73.097594	-0.020946	-16.831145
1.150000	-0.021982	-17.583412	-46.151900	72.369040	-46.151900	72.369040	-0.021990	-17.586923
1.200000	-0.023006	-18.337552	-45.804422	71.642926	-45.804422	71.642926	-0.023014	-18.341211
1.250000	-0.024029	-19.091691	-45.470313	70.916812	-45.470313	70.916812	-0.024037	-19.095499
1.300000	-0.025038	-19.844584	-45.152398	70.193269	-45.152398	70.193269	-0.025047	-19.848540
1.350000	-0.026040	-20.596663	-44.848175	69.471627	-44.848175	69.471627	-0.026049	-20.600765
1.400000	-0.027036	-21.347911	-44.556708	68.752059	-44.556708	68.752059	-0.027045	-21.352160
1.450000	-0.028026	-22.098312	-44.277158	68.034727	-44.277158	68.034727	-0.028036	-22.102708
1.500000	-0.029012	-22.847851	-44.008769	67.319788	-44.008769	67.319788	-0.029022	-22.852393
1.550000	-0.029994	-23.596510	-43.750861	66.607391	-43.750861	66.607391	-0.030004	-23.601197
1.600000	-0.030973	-24.344270	-43.502817	65.897680	-43.502817	65.897680	-0.030983	-24.349102
1.650000	-0.031949	-25.091114	-43.264077	65.190797	-43.264077	65.190797	-0.031960	-25.096091
1.700000	-0.032923	-25.836690	-43.034989	64.487972	-43.034989	64.487972	-0.032934	-25.841811
1.750000	-0.033896	-26.581772	-42.813030	63.786740	-42.813030	63.786740	-0.033908	-26.587037
1.800000	-0.034868	-27.325663	-42.599523	63.089505	-42.599523	63.089505	-0.034880	-27.331072
1.850000	-0.035840	-28.068704	-42.393177	62.395124	-42.393177	62.395124	-0.035852	-28.074256
1.900000	-0.036812	-28.810685	-42.194098	61.704448	-42.194098	61.704448	-0.036824	-28.816379
1.950000	-0.037783	-29.551606	-42.001905	61.017476	-42.001905	61.017476	-0.037796	-29.557442
2.000000	-0.038756	-30.291612	-41.815914	60.333819	-41.815914	60.333819	-0.038769	-30.297590
2.050000	-0.039729	-31.030337	-41.636622	59.654803	-41.636622	59.654803	-0.039742	-31.036455
2.100000	-0.040703	-31.768304	-41.462568	58.978618	-41.462568	58.978618	-0.040717	-31.774563
2.150000	-0.041679	-32.504758	-41.295095	58.308095	-41.295095	58.308095	-0.041693	-32.511157
2.200000	-0.042656	-33.240626	-41.131981	57.639829	-41.131981	57.639829	-0.042670	-33.247164
2.250000	-0.043636	-33.974737	-40.975382	56.978332	-40.975382	56.978332	-0.043651	-33.981414
2.300000	-0.044617	-34.708446	-40.822337	56.318429	-40.822337	56.318429	-0.044632	-34.715261
2.350000	-0.045602	-35.440145	-40.675782	55.666489	-40.675782	55.666489	-0.045617	-35.447098
2.400000	-0.046588	-36.171637	-40.532042	55.015389	-40.532042	55.015389	-0.046603	-36.178728
2.450000	-0.047579	-36.900857	-40.394795	54.373533	-40.394795	54.373533	-0.047595	-36.908084
2.500000	-0.048571	-37.630078	-40.259682	53.731677	-40.259682	53.731677	-0.048587	-37.637441
2.550000	-0.049570	-38.356756	-40.131085	53.100432	-40.131085	53.100432	-0.049587	-38.364255
2.600000	-0.050569	-39.083435	-40.004364	52.469187	-40.004364	52.469187	-0.050586	-39.091069
2.650000	-0.051577	-39.807728	-39.883457	51.848153	-39.883457	51.848153	-0.051594	-39.815496
2.700000	-0.052585	-40.531804	-39.764568	51.228046	-39.764568	51.228046	-0.052602	-40.539706
2.750000	-0.053601	-41.253663	-39.650834	50.617662	-39.650834	50.617662	-0.053619	-41.261699
2.800000	-0.054619	-41.975079	-39.539269	50.009221	-39.539269	50.009221	-0.054637	-41.983247
2.850000	-0.055646	-42.694459	-39.432236	49.409926	-39.432236	49.409926	-0.055664	-42.702759
2.900000	-0.056675	-43.413161	-39.327532	48.813679	-39.327532	48.813679	-0.056694	-43.421593
2.950000	-0.057714	-44.130018	-39.226771	48.225913	-39.226771	48.225913	-0.057733	-44.138581
3.000000	-0.058756	-44.845953	-39.128499	47.642388	-39.128499	47.642388	-0.058775	-44.854646
3.050000	-0.059807	-45.560246	-39.033617	47.066592	-39.033617	47.066592	-0.059826	-45.569069
3.100000	-0.060863	-46.273367	-38.941380	46.496317	-38.941380	46.496317	-0.060883	-46.282319
3.150000	-0.061928	-46.985057	-38.852015	45.932931	-38.852015	45.932931	-0.061948	-46.994137
3.200000	-0.063000	-47.695317	-38.765442	45.376435	-38.765442	45.376435	-0.063021	-47.704525
3.250000	-0.064079	-48.404368	-38.681256	44.825898	-38.681256	44.825898	-0.064100	-48.413703
3.300000	-0.065169	-49.111725	-38.600000	44.283706	-38.600000	44.283706	-0.065190	-49.121187
3.350000	-0.066264	-49.818101	-38.520677	43.746457	-38.520677	43.746457	-0.066286	-49.827690
3.400000	-0.067372	-50.522516	-38.444408	43.219093	-38.444408	43.219093	-0.067394	-50.532230
3.450000	-0.068485	-51.226187	-38.369652	42.695568	-38.369652	42.695568	-0.068508	-51.236026
3.500000	-0.069614	-51.927623	-38.298058	42.183555	-38.298058	42.183555	-0.069637	-51.937586
3.550000	-0.070746	-52.628558	-38.227589	41.674186	-38.227589	41.674186	-0.070769	-52.638645
3.600000	-0.071896	-53.326982	-38.160367	41.178038	-38.160367	41.178038	-0.071919	-53.337192
3.650000	-0.073048	-54.025153	-38.093918	40.683255	-38.093918	40.683255	-0.073072	-54.035486
3.700000	-0.074222	-54.720536	-38.030780	40.203481	-38.030780	40.203481	-0.074246	-54.730990
3.750000	-0.075395	-55.415918	-37.968096	39.723707	-37.968096	39.723707	-0.075420	-55.426494
3.800000	-0.076594	-56.108231	-37.908758	39.260807	-37.908758	39.260807	-0.076619	-56.118928
3.850000	-0.077793	-56.800544	-37.849823	38.797906	-37.849823	38.797906	-0.077818	-56.811361
3.900000	-0.079016	-57.490022	-37.793783	38.350918	-37.793783	38.350918	-0.079041	-57.500958
3.950000	-0.080241	-58.179242	-37.738327	37.905377	-37.738327	37.905377	-0.080267	-58.190298
4.000000	-0.081490	-58.865867	-37.685344	37.474694	-37.685344	37.474694	-0.081516	-58.877041
4.050000	-0.082744	-59.551973	-37.633103	37.046983	-37.633103	37.046983	-0.082770	-59.563264
4.100000	-0.084020	-60.235729	-37.582943	36.632983	-37.582943	36.632983	-0.084047	-60.247138
4.150000	-0.085304	-60.918703	-37.533656	36.223552	-37.533656	36.223552	-0.085331	-60.930229
4.200000	-0.086608	-61.599579	-37.486087	35.826593	-37.486087	35.826593	-0.086636	-61.611220
4.250000	-0.087924	-62.279405	-37.439493	35.435870	-37.439493	35.435870	-0.087952	-62.291162
4.300000	-0.089258	-62.957389	-37.394288	35.056291	-37.394288	35.056291	-0.089287	-62.969261
4.350000	-0.090607	-63.634057	-37.350126	34.684672	-37.350126	34.684672	-0.090636	-63.646043
4.400000	-0.091973	-64.309141	-37.307059	34.322785	-37.307059	34.322785	-0.092003	-64.321241
4.450000	-0.093357	-64.982641	-37.265069	33.970631	-37.265069	33.970631	-0.093387	-64.994854
4.500000	-0.094756	-65.654818	-37.223913	33.626720	-37.223913	33.626720	-0.094786	-65.667145
4.550000	-0.096176	-66.325144	-37.183833	33.294349	-37.183833	33.294349	-0.096207	-66.337583
4.600000	-0.097609	-66.994412	-37.144364	32.968662	-37.144364	32.968662	-0.097640	-67.006962
4.650000	-0.099068	-67.661561	-37.105926	32.656343	-37.105926	32.656343	-0.099099	-67.674223
4.700000	-0.100536	-68.327916	-37.067919	32.349090	-37.067919	32.349090	-0.100568	-68.340688
4.750000	-0.102035	-68.991889	-37.030856	32.057034	-37.030856	32.057034	-0.102067	-69.004771
4.800000	-0.103540	-69.655332	-36.994083	31.768379	-36.994083	31.768379	-0.103573	-69.668324
4.850000	-0.105081	-70.316130	-36.958123	31.496730	-36.958123	31.496730	-0.105114	-70.329231
4.900000	-0.106624	-70.976664	-36.922357	31.226787	-36.922357	31.226787	-0.106658	-70.989874
4.950000	-0.108208	-71.634293	-36.887226	30.975612	-36.887226	30.975612	-0.108242	-71.647611
5.000000	-0.109792	-72.291922	-36.852236	30.724436	-36.852236	30.724436	-0.109826	-72.305348
5.050000	-0.111420	-72.946390	-36.817655	30.493716	-36.817655	30.493716	-0.111455	-72.959923
5.100000	-0.113048	-73.600859	-36.783211	30.262995	-36.783211	30.262995	-0.113084	-73.614498
5.150000	-0.114719	-74.252439	-36.748900	30.050919	-36.748900	30.050919	-0.114755	-74.266185
5.200000	-0.116395	-74.903758	-36.714723	29.840538	-36.714723	29.840538	-0.116431	-74.917609
5.250000	-0.118110	-75.552462	-36.680444	29.646921	-36.680444	29.646921	-0.118146	-75.566418
5.300000	-0.119833	-76.200644	-36.646253	29.456656	-36.646253	29.456656	-0.119870	-76.214705
5.350000	-0.121594	-76.846485	-36.611772	29.281225	-36.611772	29.281225	-0.121631	-76.860650
5.400000	-0.123367	-77.491546	-36.577285	29.110738	-36.577285	29.110738	-0.123405	-77.505815
5.450000	-0.125175	-78.134539	-36.542365	28.953126	-36.542365	28.953126	-0.125213	-78.148912
5.500000	-0.127000	-78.776498	-36.507301	28.801952	-36.507301	28.801952	-0.127039	-78.790974
5.550000	-0.128855	-79.416659	-36.471710	28.661692	-36.471710	28.661692	-0.128895	-79.431238
5.600000	-0.130733	-80.055537	-36.435789	28.529229	-36.435789	28.529229	-0.130773	-80.070218
5.650000	-0.132638	-80.692886	-36.399297	28.405750	-36.399297	28.405750	-0.132679	-80.707669
5.700000	-0.134571	-81.328706	-36.362243	28.291257	-36.362243	28.291257	-0.134612	-81.343590
5.750000	-0.136527	-81.963262	-36.324628	28.183880	-36.324628	28.183880	-0.136569	-81.978248
5.800000	-0.138516	-82.596049	-36.286172	28.086467	-36.286172	28.086467	-0.138558	-82.611136
5.850000	-0.140525	-83.227835	-36.247215	27.994400	-36.247215	27.994400	-0.140567	-83.243022
5.900000	-0.142572	-83.857618	-36.207097	27.913029	-36.207097	27.913029	-0.142615	-83.872906
5.950000	-0.144634	-84.486658	-36.166591	27.835371	-36.166591	27.835371	-0.144678	-84.502045
6.000000	-0.146740	-85.113467	-36.124563	27.768852	-36.124563	27.768852	-0.146785	-85.128953
6.050000	-0.148858	-85.739785	-36.082310	27.704588	-36.082310	27.704588	-0.148902	-85.755371
6.100000	-0.151025	-86.363652	-36.038138	27.651589	-36.038138	27.651589	-0.151070	-86.379336
6.150000	-0.153198	-86.987277	-35.993954	27.599594	-35.993954	27.599594	-0.153244	-87.003059
6.200000	-0.155429	-87.608236	-35.947422	27.558641	-35.947422	27.558641	-0.155475	-87.624116
6.250000	-0.157660	-88.229195	-35.901138	27.517688	-35.901138	27.517688	-0.157707	-88.245173
6.300000	-0.159954	-88.847282	-35.852051	27.487178	-35.852051	27.487178	-0.160002	-88.863359
6.350000	-0.162249	-89.465370	-35.803240	27.456669	-35.803240	27.456669	-0.162298	-89.481544
6.400000	-0.164604	-90.080861	-35.751702	27.434159	-35.751702	27.434159	-0.164653	-90.097132
6.450000	-0.166965	-90.696116	-35.700197	27.412377	-35.700197	27.412377	-0.167015	-90.712483
6.500000	-0.169382	-91.309043	-35.646097	27.396358	-35.646097	27.396358	-0.169432	-91.325507
6.550000	-0.171810	-91.921505	-35.591756	27.381491	-35.591756	27.381491	-0.171861	-91.938066
6.600000	-0.174290	-92.531904	-35.535006	27.370395	-35.535006	27.370395	-0.174341	-92.548561
6.650000	-0.176787	-93.141616	-35.477717	27.360556	-35.477717	27.360556	-0.176839	-93.158369
6.700000	-0.179331	-93.749523	-35.418256	27.352778	-35.418256	27.352778	-0.179384	-93.766371
6.750000	-0.181899	-94.356528	-35.357935	27.346030	-35.357935	27.346030	-0.181952	-94.373472
6.800000	-0.184508	-94.961980	-35.295724	27.339941	-35.295724	27.339941	-0.184562	-94.979020
6.850000	-0.187148	-95.566324	-35.232320	27.334323	-35.232320	27.334323	-0.187202	-95.583459
6.900000	-0.189824	-96.169362	-35.167346	27.328290	-35.167346	27.328290	-0.189879	-96.186591
6.950000	-0.192537	-96.771092	-35.100841	27.321844	-35.100841	27.321844	-0.192592	-96.788417
7.000000	-0.195281	-97.371754	-35.033117	27.314250	-35.033117	27.314250	-0.195337	-97.389174
7.050000	-0.198069	-97.970921	-34.963523	27.305051	-34.963523	27.305051	-0.198126	-97.988435
7.100000	-0.200882	-98.569249	-34.893085	27.294311	-34.893085	27.294311	-0.200940	-98.586858
7.150000	-0.203746	-99.165902	-34.820444	27.280492	-34.820444	27.280492	-0.203804	-99.183605
7.200000	-0.206630	-99.761940	-34.747353	27.265074	-34.747353	27.265074	-0.206689	-99.779737
7.250000	-0.209571	-100.356131	-34.671740	27.244857	-34.671740	27.244857	-0.209631	-100.374023
7.300000	-0.212527	-100.949922	-34.596077	27.223295	-34.596077	27.223295	-0.212587	-100.967908
7.350000	-0.215547	-101.541706	-34.517591	27.195010	-34.517591	27.195010	-0.215608	-101.559786
7.400000	-0.218575	-102.133295	-34.439460	27.165925	-34.439460	27.165925	-0.218637	-102.151469
7.450000	-0.221676	-102.722728	-34.358226	27.128035	-34.358226	27.128035	-0.221739	-102.740996
7.500000	-0.224779	-103.312161	-34.277745	27.090146	-34.277745	27.090146	-0.224842	-103.330523
7.550000	-0.227961	-103.899299	-34.193911	27.041263	-34.193911	27.041263	-0.228025	-103.917755
7.600000	-0.231145	-104.486437	-34.110879	26.992380	-34.110879	26.992380	-0.231210	-104.504987
7.650000	-0.234405	-105.071526	-34.024948	26.932298	-34.024948	26.932298	-0.234470	-105.090170
7.700000	-0.237672	-105.656428	-33.939527	26.871197	-33.939527	26.871197	-0.237738	-105.675166
7.750000	-0.241008	-106.239516	-33.851664	26.799038	-33.851664	26.799038	-0.241075	-106.258348
7.800000	-0.244360	-106.822242	-33.764033	26.724667	-33.764033	26.724667	-0.244428	-106.841168
7.850000	-0.247775	-107.403381	-33.674411	26.639688	-33.674411	26.639688	-0.247844	-107.422401
7.900000	-0.251213	-107.983992	-33.584759	26.551173	-33.584759	26.551173	-0.251282	-108.003106
7.950000	-0.254707	-108.563234	-33.493554	26.452767	-33.493554	26.452767	-0.254778	-108.582443
8.000000	-0.258232	-109.141793	-33.402076	26.349416	-33.402076	26.349416	-0.258303	-109.161095
8.050000	-0.261807	-109.719191	-33.309466	26.237109	-33.309466	26.237109	-0.261879	-109.738588
8.100000	-0.265420	-110.295761	-33.216361	26.118406	-33.216361	26.118406	-0.265492	-110.315253
8.150000	-0.269077	-110.871370	-33.122526	25.991855	-33.122526	25.991855	-0.269150	-110.890957
8.200000	-0.272779	-111.446017	-33.027994	25.857458	-33.027994	25.857458	-0.272853	-111.465699
8.250000	-0.276519	-112.019891	-32.933107	25.716449	-32.933107	25.716449	-0.276594	-112.039668
8.300000	-0.280311	-112.592683	-32.837345	25.566182	-32.837345	25.566182	-0.280387	-112.612554
8.350000	-0.284135	-113.164878	-32.741576	25.410618	-32.741576	25.410618	-0.284211	-113.184845
8.400000	-0.288019	-113.735882	-32.644775	25.244460	-32.644775	25.244460	-0.288096	-113.755944
8.450000	-0.291927	-114.306456	-32.548288	25.074360	-32.548288	25.074360	-0.292005	-114.326614
8.500000	-0.295903	-114.875742	-32.450630	24.892433	-32.450630	24.892433	-0.295982	-114.895995
8.550000	-0.299897	-115.444753	-32.353580	24.707920	-32.353580	24.707920	-0.299977	-115.465102
8.600000	-0.303967	-116.012391	-32.255240	24.510475	-32.255240	24.510475	-0.304048	-116.032837
8.650000	-0.308047	-116.579898	-32.157773	24.311769	-32.157773	24.311769	-0.308129	-116.600440
8.700000	-0.312212	-117.145961	-32.058910	24.099175	-32.058910	24.099175	-0.312295	-117.166600
8.750000	-0.316379	-117.712024	-31.961161	23.886581	-31.961161	23.886581	-0.316463	-117.732760
8.800000	-0.320640	-118.276585	-31.861925	23.659308	-31.861925	23.659308	-0.320724	-118.297419
8.850000	-0.324903	-118.841147	-31.763810	23.432035	-31.763810	23.432035	-0.324988	-118.862078
8.900000	-0.329253	-119.404401	-31.664542	23.191815	-31.664542	23.191815	-0.329338	-119.425430
8.950000	-0.333612	-119.967536	-31.566193	22.950419	-31.566193	22.950419	-0.333699	-119.988663
9.000000	-0.338051	-120.529546	-31.466991	22.697778	-31.466991	22.697778	-0.338139	-120.550772
9.050000	-0.342508	-121.091330	-31.368524	22.442889	-31.368524	22.442889	-0.342596	-121.112655
9.100000	-0.347037	-121.652161	-31.269476	22.178397	-31.269476	22.178397	-0.347126	-121.673585
9.150000	-0.351592	-122.212673	-31.170991	21.910704	-31.170991	21.910704	-0.351682	-122.234197
9.200000	-0.356212	-122.772390	-31.072172	21.634967	-31.072172	21.634967	-0.356303	-122.794014
9.250000	-0.360866	-123.331708	-30.973755	21.355206	-30.973755	21.355206	-0.360958	-123.353433
9.300000	-0.365578	-123.890378	-30.875226	21.068856	-30.875226	21.068856	-0.365671	-123.912203
9.350000	-0.370331	-124.448584	-30.776945	20.777799	-30.776945	20.777799	-0.370425	-124.470511
9.400000	-0.375135	-125.006275	-30.678755	20.481491	-30.678755	20.481491	-0.375230	-125.028303
9.450000	-0.379989	-125.563450	-30.580665	20.179932	-30.580665	20.179932	-0.380084	-125.585580
9.500000	-0.384885	-126.120230	-30.482851	19.874333	-30.482851	19.874333	-0.384982	-126.142463
9.550000	-0.389840	-126.676458	-30.384991	19.563078	-30.384991	19.563078	-0.389937	-126.698794
9.600000	-0.394829	-127.232398	-30.287578	19.248863	-30.287578	19.248863	-0.394927	-127.254838
9.650000	-0.399884	-127.787764	-30.189972	18.928726	-30.189972	18.928726	-0.399984	-127.810308
9.700000	-0.404967	-128.342935	-30.092973	18.606571	-30.092973	18.606571	-0.405067	-128.365584
9.750000	-0.410124	-128.897525	-29.995630	18.278359	-29.995630	18.278359	-0.410225	-128.920279
9.800000	-0.415300	-129.452000	-29.899050	17.948935	-29.899050	17.948935	-0.415402	-129.474859
9.850000	-0.420559	-130.005902	-29.801965	17.613446	-29.801965	17.613446	-0.420662	-130.028868
9.900000	-0.425830	-130.559755	-29.705796	17.277416	-29.705796	17.277416	-0.425934	-130.582827
9.950000	-0.431191	-131.113059	-29.608952	16.935431	-29.608952	16.935431	-0.431296	-131.136239
10.000000	-0.436555	-131.666363	-29.513177	16.593446	-29.513177	16.593446	-0.436661	-131.689651
