! freq	dB(S11)	phase(S11)	dB(S12)	phase(S12)	
!     	dB(S21)	phase(S21)	dB(S22)	phase(S22)	
!S-par simulation data
#  GHz  S  DB  R 50
0.000000	-90.070617	0.000000	-0.000272	0.000000	-0.000272	0.000000	-90.070616	0.000000
0.050000	-76.687114	-78.722264	-0.000395	-0.878657	-0.000395	-0.878657	-76.689926	-78.728714
0.100000	-70.844633	-86.049397	-0.000758	-1.757022	-0.000758	-1.757022	-70.847539	-86.068421
0.150000	-67.393623	-89.326263	-0.001341	-2.634834	-0.001341	-2.634834	-67.396535	-89.356705
0.200000	-64.963218	-91.568640	-0.002116	-3.511890	-0.002116	-3.511890	-64.966120	-91.610332
0.250000	-63.107370	-93.378837	-0.003060	-4.387984	-0.003060	-4.387984	-63.110249	-93.431883
0.300000	-61.619563	-95.002614	-0.004122	-5.263118	-0.004122	-5.263118	-61.622411	-95.067248
0.350000	-60.393369	-96.513741	-0.005277	-6.137229	-0.005277	-6.137229	-60.396175	-96.590301
0.400000	-59.364310	-97.960612	-0.006492	-7.010344	-0.006492	-7.010344	-59.367062	-98.049534
0.450000	-58.491070	-99.371147	-0.007741	-7.882523	-0.007741	-7.882523	-58.493752	-99.472969
0.500000	-57.745787	-100.763309	-0.009001	-8.753855	-0.009001	-8.753855	-57.748380	-100.878677
0.550000	-57.108995	-102.149888	-0.010256	-9.624444	-0.010256	-9.624444	-57.111477	-102.279569
0.600000	-56.566779	-103.540946	-0.011493	-10.494398	-0.011493	-10.494398	-56.569122	-103.685848
0.650000	-56.109090	-104.945203	-0.012702	-11.363826	-0.012702	-11.363826	-56.111256	-105.106399
0.700000	-55.728698	-106.370930	-0.013880	-12.232829	-0.013880	-12.232829	-55.730640	-106.549686
0.750000	-55.420532	-107.826607	-0.015022	-13.101504	-0.015022	-13.101504	-55.422192	-108.024420
0.800000	-55.181266	-109.321495	-0.016129	-13.969934	-0.016129	-13.969934	-55.182566	-109.540142
0.850000	-55.009056	-110.866233	-0.017200	-14.838197	-0.017200	-14.838197	-55.009897	-111.107834
0.900000	-54.903403	-112.473529	-0.018238	-15.706357	-0.018238	-15.706357	-54.903654	-112.740625
0.950000	-54.865106	-114.159053	-0.019245	-16.574474	-0.019245	-16.574474	-54.864592	-114.454715
1.000000	-54.896299	-115.942655	-0.020223	-17.442597	-0.020223	-17.442597	-54.894783	-116.270621
1.050000	-55.000567	-117.850106	-0.021176	-18.310770	-0.021176	-18.310770	-54.997725	-118.214968
1.100000	-55.183161	-119.915667	-0.022107	-19.179029	-0.022107	-19.179029	-55.178537	-120.323116
1.150000	-55.451310	-122.186000	-0.023018	-20.047409	-0.023018	-20.047409	-55.444252	-122.643159
1.200000	-55.814665	-124.726301	-0.023912	-20.915936	-0.023912	-20.915936	-55.804215	-125.242163
1.250000	-56.285862	-127.630209	-0.024792	-21.784637	-0.024792	-21.784637	-56.270570	-128.216191
1.300000	-56.885157	-131.068786	-0.025660	-22.653543	-0.025660	-22.653543	-56.862657	-131.740166
1.350000	-57.628400	-135.254894	-0.026519	-23.522666	-0.026519	-23.522666	-57.594904	-136.029941
1.400000	-58.537066	-140.558657	-0.027372	-24.392025	-0.027372	-24.392025	-58.486164	-141.457805
1.450000	-59.626254	-147.597975	-0.028219	-25.261637	-0.028219	-25.261637	-59.546822	-148.636034
1.500000	-60.875820	-157.401731	-0.029064	-26.131516	-0.029064	-26.131516	-60.749008	-158.558394
1.550000	-62.145416	-171.477591	-0.029907	-27.001677	-0.029907	-27.001677	-61.945068	-172.613525
1.600000	-63.017143	169.080711	-0.030751	-27.872136	-0.030751	-27.872136	-62.732715	168.324626
1.650000	-62.868537	146.301748	-0.031597	-28.742904	-0.031597	-28.742904	-62.550281	146.271363
1.700000	-61.561828	125.199510	-0.032446	-29.613996	-0.032446	-29.613996	-61.286320	125.813513
1.750000	-59.624389	108.971459	-0.033300	-30.485424	-0.033300	-30.485424	-59.418670	109.895447
1.800000	-57.575624	97.512663	-0.034160	-31.357200	-0.034160	-31.357200	-57.427520	98.493155
1.850000	-55.644065	89.402919	-0.035026	-32.229338	-0.035026	-32.229338	-55.535498	90.334894
1.900000	-53.884377	83.427475	-0.035901	-33.101849	-0.035901	-33.101849	-53.802122	84.283232
1.950000	-52.290392	78.815015	-0.036785	-33.974747	-0.036785	-33.974747	-52.225990	79.594488
2.000000	-50.840913	75.101852	-0.037680	-34.848043	-0.037680	-34.848043	-50.789021	75.812906
2.050000	-49.514023	72.004979	-0.038586	-35.721750	-0.038586	-35.721750	-49.471190	72.656750
2.100000	-48.290754	69.345715	-0.039504	-36.595880	-0.039504	-36.595880	-48.254680	69.946586
2.150000	-47.155531	67.007057	-0.040436	-37.470447	-0.040436	-37.470447	-47.124634	67.564186
2.200000	-46.095747	64.909723	-0.041383	-38.345462	-0.041383	-38.345462	-46.068908	65.429075
2.250000	-45.101199	62.998321	-0.042345	-39.220938	-0.042345	-39.220938	-45.077603	63.484833
2.300000	-44.163578	61.233093	-0.043324	-40.096888	-0.043324	-40.096888	-44.142618	61.690857
2.350000	-43.276061	59.584815	-0.044321	-40.973325	-0.044321	-40.973325	-43.257277	60.017239
2.400000	-42.432994	58.031552	-0.045337	-41.850261	-0.045337	-41.850261	-42.416029	58.441494
2.450000	-41.629647	56.556533	-0.046373	-42.727710	-0.046373	-42.727710	-41.614221	56.946404
2.500000	-40.862027	55.146725	-0.047430	-43.605684	-0.047430	-43.605684	-40.847915	55.518576
2.550000	-40.125417	53.793851	-0.048511	-44.484221	-0.048511	-44.484221	-40.112440	54.149501
2.600000	-39.418400	52.487100	-0.049615	-45.363309	-0.049615	-45.363309	-39.406408	52.828044
2.650000	-38.738427	51.219991	-0.050745	-46.242962	-0.050745	-46.242962	-38.727298	51.547528
2.700000	-38.083284	49.987206	-0.051901	-47.123194	-0.051901	-47.123194	-38.072914	50.302469
2.750000	-37.451032	48.784339	-0.053086	-48.004016	-0.053086	-48.004016	-37.441336	49.088323
2.800000	-36.839966	47.607709	-0.054299	-48.885442	-0.054299	-48.885442	-36.830870	47.901294
2.850000	-36.248575	46.454215	-0.055544	-49.767485	-0.055544	-49.767485	-36.240017	46.738180
2.900000	-35.675516	45.321228	-0.056820	-50.650156	-0.056820	-50.650156	-35.667441	45.596267
2.950000	-35.119589	44.206499	-0.058131	-51.533469	-0.058131	-51.533469	-35.111950	44.473232
3.000000	-34.579715	43.108095	-0.059477	-52.417435	-0.059477	-52.417435	-34.572472	43.367081
3.050000	-34.054923	42.024346	-0.060861	-53.302068	-0.060861	-53.302068	-34.048040	42.276084
3.100000	-33.544334	40.953794	-0.062284	-54.187380	-0.062284	-54.187380	-33.537779	41.198740
3.150000	-33.047150	39.895168	-0.063748	-55.073382	-0.063748	-55.073382	-33.040896	40.133732
3.200000	-32.562644	38.847347	-0.065254	-55.960086	-0.065254	-55.960086	-32.556665	39.079905
3.250000	-32.090151	37.809342	-0.066805	-56.847503	-0.066805	-56.847503	-32.084426	38.036235
3.300000	-31.629063	36.780276	-0.068403	-57.735646	-0.068403	-57.735646	-31.623572	37.001816
3.350000	-31.178820	35.759366	-0.070050	-58.624525	-0.070050	-58.624525	-31.173546	35.975839
3.400000	-30.738908	34.745910	-0.071747	-59.514152	-0.071747	-59.514152	-30.733835	34.957581
3.450000	-30.308851	33.739280	-0.073497	-60.404536	-0.073497	-60.404536	-30.303964	33.946391
3.500000	-29.888208	32.738908	-0.075303	-61.295689	-0.075303	-61.295689	-29.883494	32.941683
3.550000	-29.476572	31.744281	-0.077166	-62.187619	-0.077166	-62.187619	-29.472019	31.942927
3.600000	-29.073563	30.754930	-0.079089	-63.080338	-0.079089	-63.080338	-29.069161	30.949641
3.650000	-28.678828	29.770433	-0.081073	-63.973854	-0.081073	-63.973854	-28.674567	29.961387
3.700000	-28.292039	28.790401	-0.083123	-64.868177	-0.083123	-64.868177	-28.287910	28.977764
3.750000	-27.912888	27.814478	-0.085240	-65.763315	-0.085240	-65.763315	-27.908882	27.998406
3.800000	-27.540716	26.842489	-0.087429	-66.659312	-0.087429	-66.659312	-27.536827	27.023133
3.850000	-27.175654	25.873959	-0.089690	-67.556141	-0.089690	-67.556141	-27.171874	26.051454
3.900000	-26.817447	24.908614	-0.092027	-68.453810	-0.092027	-68.453810	-26.813770	25.083086
3.950000	-26.465856	23.946201	-0.094442	-69.352325	-0.094442	-69.352325	-26.462277	24.117769
4.000000	-26.120657	22.986485	-0.096937	-70.251693	-0.096937	-70.251693	-26.117169	23.155260
4.050000	-25.781637	22.029249	-0.099515	-71.151920	-0.099515	-71.151920	-25.778236	22.195337
4.100000	-25.448597	21.074291	-0.102179	-72.053011	-0.102179	-72.053011	-25.445278	21.237791
4.150000	-25.121349	20.121423	-0.104933	-72.954971	-0.104933	-72.954971	-25.118108	20.282429
4.200000	-24.799715	19.170472	-0.107778	-73.857806	-0.107778	-73.857806	-24.796547	19.329071
4.250000	-24.483527	18.221273	-0.110718	-74.761519	-0.110718	-74.761519	-24.480429	18.377550
4.300000	-24.172626	17.273676	-0.113756	-75.666113	-0.113756	-75.666113	-24.169595	17.427709
4.350000	-23.866861	16.327539	-0.116895	-76.571591	-0.116895	-76.571591	-23.863894	16.479404
4.400000	-23.566090	15.382730	-0.120137	-77.477956	-0.120137	-77.477956	-23.563183	15.532499
4.450000	-23.270177	14.439126	-0.123487	-78.385210	-0.123487	-78.385210	-23.267328	14.586866
4.500000	-22.978994	13.496614	-0.126947	-79.293353	-0.126947	-79.293353	-22.976200	13.642390
4.550000	-22.692418	12.555085	-0.130519	-80.202385	-0.130519	-80.202385	-22.689676	12.698958
4.600000	-22.410334	11.614441	-0.134209	-81.112308	-0.134209	-81.112308	-22.407642	11.756471
4.650000	-22.132630	10.674590	-0.138017	-82.023120	-0.138017	-82.023120	-22.129986	10.814831
4.700000	-21.859201	9.735445	-0.141949	-82.934819	-0.141949	-82.934819	-21.856603	9.873952
4.750000	-21.589947	8.796927	-0.146006	-83.847404	-0.146006	-83.847404	-21.587393	8.933750
4.800000	-21.324946	7.858943	-0.150187	-84.760834	-0.150187	-84.760834	-21.322434	7.994129
4.850000	-21.063711	6.921470	-0.154507	-85.675190	-0.154507	-85.675190	-21.061239	7.055068
4.900000	-20.806380	5.984419	-0.158963	-86.590422	-0.158963	-86.590422	-20.803947	6.116474
4.950000	-20.552870	5.047730	-0.163557	-87.506524	-0.163557	-87.506524	-20.550475	5.178286
5.000000	-20.303100	4.111353	-0.168294	-88.423490	-0.168294	-88.423490	-20.300741	4.240450
5.050000	-20.056924	3.175244	-0.173179	-89.341333	-0.173179	-89.341333	-20.054599	3.302922
5.100000	-19.814345	2.239352	-0.178213	-90.260027	-0.178213	-90.260027	-19.812053	2.365649
5.150000	-19.575292	1.303639	-0.183399	-91.179564	-0.183399	-91.179564	-19.573033	1.428593
5.200000	-19.339699	0.368071	-0.188739	-92.099935	-0.188739	-92.099935	-19.337470	0.491716
5.250000	-19.107500	-0.567383	-0.194238	-93.021131	-0.194238	-93.021131	-19.105301	-0.445014
5.300000	-18.878634	-1.502750	-0.199898	-93.943142	-0.199898	-93.943142	-18.876464	-1.381624
5.350000	-18.653041	-2.438053	-0.205723	-94.865957	-0.205723	-94.865957	-18.650898	-2.318139
5.400000	-18.430664	-3.373313	-0.211715	-95.789565	-0.211715	-95.789565	-18.428548	-3.254581
5.450000	-18.211448	-4.308545	-0.217877	-96.713953	-0.217877	-96.713953	-18.209357	-4.190965
5.500000	-17.995339	-5.243763	-0.224213	-97.639108	-0.224213	-97.639108	-17.993274	-5.127307
5.550000	-17.782287	-6.178976	-0.230725	-98.565016	-0.230725	-98.565016	-17.780246	-6.063618
5.600000	-17.572243	-7.114192	-0.237416	-99.491663	-0.237416	-99.491663	-17.570225	-6.999905
5.650000	-17.365138	-8.049414	-0.244292	-100.419040	-0.244292	-100.419040	-17.363142	-7.936173
5.700000	-17.160928	-8.984645	-0.251355	-101.347132	-0.251355	-101.347132	-17.158954	-8.872425
5.750000	-16.959593	-9.919883	-0.258605	-102.275913	-0.258605	-102.275913	-16.957640	-9.808660
5.800000	-16.761089	-10.855124	-0.266045	-103.205366	-0.266045	-103.205366	-16.759156	-10.744876
5.850000	-16.565374	-11.790362	-0.273679	-104.135472	-0.273679	-104.135472	-16.563461	-11.681066
5.900000	-16.372409	-12.725588	-0.281508	-105.066213	-0.281508	-105.066213	-16.370515	-12.617224
5.950000	-16.182155	-13.660792	-0.289535	-105.997568	-0.289535	-105.997568	-16.180279	-13.553339
6.000000	-15.994573	-14.595962	-0.297762	-106.929517	-0.297762	-106.929517	-15.992715	-14.489400
6.050000	-15.809627	-15.531082	-0.306192	-107.862039	-0.306192	-107.862039	-15.807786	-15.425392
6.100000	-15.627282	-16.466138	-0.314826	-108.795111	-0.314826	-108.795111	-15.625458	-16.361300
6.150000	-15.447504	-17.401110	-0.323667	-109.728712	-0.323667	-109.728712	-15.445695	-17.297107
6.200000	-15.270257	-18.335980	-0.332716	-110.662818	-0.332716	-110.662818	-15.268465	-18.232793
6.250000	-15.095511	-19.270726	-0.341976	-111.597405	-0.341976	-111.597405	-15.093733	-19.168340
6.300000	-14.923213	-20.205323	-0.351453	-112.532458	-0.351453	-112.532458	-14.921450	-20.103720
6.350000	-14.753355	-21.139750	-0.361144	-113.467941	-0.361144	-113.467941	-14.751605	-21.038914
6.400000	-14.585906	-22.073982	-0.371050	-114.403830	-0.371050	-114.403830	-14.584171	-21.973897
6.450000	-14.420838	-23.007993	-0.381173	-115.340097	-0.381173	-115.340097	-14.419115	-22.908645
6.500000	-14.258121	-23.941758	-0.391513	-116.276715	-0.391513	-116.276715	-14.256411	-23.843132
6.550000	-14.097727	-24.875248	-0.402074	-117.213658	-0.402074	-117.213658	-14.096029	-24.777330
6.600000	-13.939628	-25.808436	-0.412854	-118.150898	-0.412854	-118.150898	-13.937943	-25.711211
6.650000	-13.783798	-26.741293	-0.423856	-119.088406	-0.423856	-119.088406	-13.782124	-26.644749
6.700000	-13.630165	-27.673753	-0.435099	-120.026175	-0.435099	-120.026175	-13.628502	-27.577874
6.750000	-13.478794	-28.605853	-0.446547	-120.964132	-0.446547	-120.964132	-13.477142	-28.510629
6.800000	-13.329615	-29.537532	-0.458218	-121.902269	-0.458218	-121.902269	-13.327974	-29.442951
6.850000	-13.182603	-30.468762	-0.470112	-122.840557	-0.470112	-122.840557	-13.180972	-30.374811
6.900000	-13.037735	-31.399511	-0.482229	-123.778964	-0.482229	-123.778964	-13.036114	-31.306178
6.950000	-12.894985	-32.329748	-0.494569	-124.717462	-0.494569	-124.717462	-12.893373	-32.237024
7.000000	-12.754331	-33.259445	-0.507133	-125.656018	-0.507133	-125.656018	-12.752729	-33.167316
7.050000	-12.615750	-34.188570	-0.519919	-126.594601	-0.519919	-126.594601	-12.614156	-34.097027
7.100000	-12.479218	-35.117093	-0.532927	-127.533182	-0.532927	-127.533182	-12.477634	-35.026125
7.150000	-12.344715	-36.044985	-0.546157	-128.471727	-0.546157	-128.471727	-12.343139	-35.954582
7.200000	-12.212219	-36.972215	-0.559607	-129.410206	-0.559607	-129.410206	-12.210651	-36.882367
7.250000	-12.081707	-37.898754	-0.573278	-130.348586	-0.573278	-130.348586	-12.080147	-37.809451
7.300000	-11.953160	-38.824573	-0.587167	-131.286837	-0.587167	-131.286837	-11.951608	-38.735806
7.350000	-11.826556	-39.749643	-0.601273	-132.224925	-0.601273	-132.224925	-11.825012	-39.661403
7.400000	-11.701876	-40.673937	-0.615595	-133.162820	-0.615595	-133.162820	-11.700339	-40.586214
7.450000	-11.579101	-41.597426	-0.630131	-134.100490	-0.630131	-134.100490	-11.577570	-41.510212
7.500000	-11.458209	-42.520083	-0.644880	-135.037903	-0.644880	-135.037903	-11.456686	-42.433369
7.550000	-11.339194	-43.441842	-0.659846	-135.975013	-0.659846	-135.975013	-11.337677	-43.355621
7.600000	-11.222028	-44.362715	-0.675021	-136.911800	-0.675021	-136.911800	-11.220518	-44.276977
7.650000	-11.106693	-45.282675	-0.690400	-137.848233	-0.690400	-137.848233	-11.105189	-45.197412
7.700000	-10.993172	-46.201697	-0.705983	-138.784281	-0.705983	-138.784281	-10.991674	-46.116902
7.750000	-10.881446	-47.119757	-0.721766	-139.719912	-0.721766	-139.719912	-10.879954	-47.035422
7.800000	-10.771498	-48.036832	-0.737745	-140.655098	-0.737745	-140.655098	-10.770012	-47.952949
7.850000	-10.663311	-48.952897	-0.753919	-141.589806	-0.753919	-141.589806	-10.661831	-48.869459
7.900000	-10.556868	-49.867931	-0.770284	-142.524009	-0.770284	-142.524009	-10.555394	-49.784930
7.950000	-10.452153	-50.781911	-0.786837	-143.457675	-0.786837	-143.457675	-10.450684	-50.699341
8.000000	-10.349151	-51.694816	-0.803573	-144.390777	-0.803573	-144.390777	-10.347687	-51.612669
8.050000	-10.247845	-52.606624	-0.820489	-145.323286	-0.820489	-145.323286	-10.246386	-52.524894
8.100000	-10.148220	-53.517315	-0.837581	-146.255174	-0.837581	-146.255174	-10.146766	-53.435996
8.150000	-10.050261	-54.426869	-0.854846	-147.186413	-0.854846	-147.186413	-10.048812	-54.345954
8.200000	-9.953954	-55.335267	-0.872278	-148.116977	-0.872278	-148.116977	-9.952510	-55.254749
8.250000	-9.859284	-56.242488	-0.889874	-149.046839	-0.889874	-149.046839	-9.857845	-56.162361
8.300000	-9.766238	-57.148515	-0.907628	-149.975975	-0.907628	-149.975975	-9.764803	-57.068772
8.350000	-9.674801	-58.053328	-0.925537	-150.904358	-0.925537	-150.904358	-9.673371	-57.973964
8.400000	-9.584962	-58.956909	-0.943595	-151.831966	-0.943595	-151.831966	-9.583536	-58.877918
8.450000	-9.496706	-59.859240	-0.961797	-152.758774	-0.961797	-152.758774	-9.495284	-59.780616
8.500000	-9.410022	-60.760303	-0.980138	-153.684759	-0.980138	-153.684759	-9.408604	-60.682040
8.550000	-9.324896	-61.660080	-0.998613	-154.609901	-0.998613	-154.609901	-9.323482	-61.582172
8.600000	-9.241318	-62.558553	-1.017216	-155.534178	-1.017216	-155.534178	-9.239908	-62.480996
8.650000	-9.159275	-63.455705	-1.035942	-156.457569	-1.035942	-156.457569	-9.157869	-63.378492
8.700000	-9.078757	-64.351517	-1.054785	-157.380056	-1.054785	-157.380056	-9.077355	-64.274643
8.750000	-8.999752	-65.245971	-1.073738	-158.301620	-1.073738	-158.301620	-8.998353	-65.169431
8.800000	-8.922286	-66.138989	-1.092799	-159.222203	-1.092799	-159.222203	-8.920890	-66.062777
8.850000	-8.846314	-67.030611	-1.111958	-160.141827	-1.111958	-160.141827	-8.844921	-66.954723
8.900000	-8.771825	-67.920817	-1.131209	-161.060479	-1.131209	-161.060479	-8.770436	-67.845248
8.950000	-8.698811	-68.809590	-1.150546	-161.978143	-1.150546	-161.978143	-8.697425	-68.734334
9.000000	-8.627262	-69.696909	-1.169962	-162.894806	-1.169962	-162.894806	-8.625879	-69.621962
9.050000	-8.557169	-70.582753	-1.189450	-163.810456	-1.189450	-163.810456	-8.555788	-70.508111
9.100000	-8.488522	-71.467103	-1.209004	-164.725083	-1.209004	-164.725083	-8.487143	-71.392761
9.150000	-8.421313	-72.349937	-1.228617	-165.638676	-1.228617	-165.638676	-8.419937	-72.275890
9.200000	-8.355534	-73.231232	-1.248282	-166.551226	-1.248282	-166.551226	-8.354160	-73.157476
9.250000	-8.291176	-74.110965	-1.267993	-167.462726	-1.267993	-167.462726	-8.289805	-74.037496
9.300000	-8.228233	-74.989114	-1.287741	-168.373170	-1.287741	-168.373170	-8.226864	-74.915928
9.350000	-8.166695	-75.865654	-1.307520	-169.282551	-1.307520	-169.282551	-8.165328	-75.792746
9.400000	-8.106556	-76.740558	-1.327322	-170.190867	-1.327322	-170.190867	-8.105191	-76.667925
9.450000	-8.047809	-77.613801	-1.347141	-171.098113	-1.347141	-171.098113	-8.046445	-77.541439
9.500000	-7.990446	-78.485356	-1.366968	-172.004289	-1.366968	-172.004289	-7.989083	-78.413260
9.550000	-7.934460	-79.355193	-1.386797	-172.909394	-1.386797	-172.909394	-7.933099	-79.283361
9.600000	-7.879846	-80.223283	-1.406619	-173.813429	-1.406619	-173.813429	-7.878486	-80.151711
9.650000	-7.826596	-81.089595	-1.426428	-174.716396	-1.426428	-174.716396	-7.825237	-81.018280
9.700000	-7.774704	-81.954099	-1.446215	-175.618299	-1.446215	-175.618299	-7.773346	-81.883037
9.750000	-7.724164	-82.816759	-1.465974	-176.519142	-1.465974	-176.519142	-7.722807	-82.745947
9.800000	-7.674970	-83.677543	-1.485695	-177.418930	-1.485695	-177.418930	-7.673613	-83.606978
9.850000	-7.627116	-84.536415	-1.505372	-178.317673	-1.505372	-178.317673	-7.625759	-84.466093
9.900000	-7.580595	-85.393337	-1.524996	-179.215377	-1.524996	-179.215377	-7.579239	-85.323257
9.950000	-7.535403	-86.248273	-1.544560	179.887946	-1.544560	179.887946	-7.534047	-86.178430
10.000000	-7.491533	-87.101181	-1.564055	178.992286	-1.564055	178.992286	-7.490178	-87.031574
