! freq	dB(S11)	phase(S11)	dB(S12)	phase(S12)	
!     	dB(S21)	phase(S21)	dB(S22)	phase(S22)	
!S-par simulation data
#  GHz  S  DB  R 50
0.000000	-0.000000	0.000000	-330.512595	0.000000	-330.512595	0.000000	-0.000000	0.000000
0.050000	-0.000103	-0.821336	-68.518766	88.472416	-68.518766	88.472416	-0.000112	-0.915252
0.100000	-0.000408	-1.642424	-62.570615	87.262011	-62.570615	87.262011	-0.000443	-1.830234
0.150000	-0.000902	-2.463034	-59.115393	86.323969	-59.115393	86.323969	-0.000982	-2.744694
0.200000	-0.001567	-3.282976	-56.665973	85.512134	-56.665973	85.512134	-0.001707	-3.658419
0.250000	-0.002390	-4.102033	-54.763307	84.742461	-54.763307	84.742461	-0.002607	-4.571167
0.300000	-0.003332	-4.920164	-53.205701	83.976539	-53.205701	83.976539	-0.003640	-5.482881
0.350000	-0.004376	-5.737253	-51.887100	83.204224	-51.887100	83.204224	-0.004789	-6.393424
0.400000	-0.005499	-6.553252	-50.744178	82.422358	-50.744178	82.422358	-0.006029	-7.302729
0.450000	-0.006680	-7.368143	-49.736053	81.631175	-49.736053	81.631175	-0.007336	-8.210764
0.500000	-0.007899	-8.181929	-48.834740	80.831943	-48.834740	80.831943	-0.008690	-9.117517
0.550000	-0.009142	-8.994631	-48.020213	80.026101	-48.020213	80.026101	-0.010074	-10.022998
0.600000	-0.010397	-9.806276	-47.277641	79.214978	-47.277641	79.214978	-0.011473	-10.927227
0.650000	-0.011652	-10.616898	-46.595728	78.399714	-46.595728	78.399714	-0.012876	-11.830231
0.700000	-0.012902	-11.426530	-45.965670	77.581264	-45.965670	77.581264	-0.014274	-12.732038
0.750000	-0.014141	-12.235202	-45.380472	76.760425	-45.380472	76.760425	-0.015662	-13.632674
0.800000	-0.015367	-13.042942	-44.834483	75.937857	-44.834483	75.937857	-0.017035	-14.532164
0.850000	-0.016577	-13.849772	-44.323073	75.114118	-44.323073	75.114118	-0.018391	-15.430527
0.900000	-0.017770	-14.655707	-43.842402	74.289678	-43.842402	74.289678	-0.019727	-16.327776
0.950000	-0.018947	-15.460759	-43.389245	73.464942	-43.389245	73.464942	-0.021045	-17.223921
1.000000	-0.020107	-16.264934	-42.960873	72.640257	-42.960873	72.640257	-0.022344	-18.118962
1.050000	-0.021253	-17.068232	-42.554954	71.815929	-42.554954	71.815929	-0.023624	-19.012899
1.100000	-0.022384	-17.870650	-42.169476	70.992231	-42.169476	70.992231	-0.024887	-19.905725
1.150000	-0.023502	-18.672181	-41.802698	70.169402	-41.802698	70.169402	-0.026134	-20.797428
1.200000	-0.024609	-19.472817	-41.453096	69.347663	-41.453096	69.347663	-0.027367	-21.687995
1.250000	-0.025705	-20.272543	-41.119333	68.527212	-41.119333	68.527212	-0.028586	-22.577409
1.300000	-0.026792	-21.071305	-40.800331	67.708307	-40.800331	67.708307	-0.029793	-23.465598
1.350000	-0.027871	-21.869125	-40.494938	66.891059	-40.494938	66.891059	-0.030990	-24.352591
1.400000	-0.028943	-22.665986	-40.202219	66.075627	-40.202219	66.075627	-0.032178	-25.238364
1.450000	-0.030009	-23.461868	-39.921334	65.262161	-39.921334	65.262161	-0.033358	-26.122893
1.500000	-0.031071	-24.256753	-39.651531	64.450801	-39.651531	64.450801	-0.034532	-27.006152
1.550000	-0.032128	-25.050618	-39.392128	63.641683	-39.392128	63.641683	-0.035700	-27.888117
1.600000	-0.033182	-25.843445	-39.142510	62.834936	-39.142510	62.834936	-0.036862	-28.768760
1.650000	-0.034233	-26.635211	-38.902116	62.030684	-38.902116	62.030684	-0.038021	-29.648055
1.700000	-0.035282	-27.425897	-38.670434	61.229047	-38.670434	61.229047	-0.039177	-30.525976
1.750000	-0.036329	-28.215480	-38.446997	60.430142	-38.446997	60.430142	-0.040330	-31.402496
1.800000	-0.037375	-29.003940	-38.231376	59.634080	-38.231376	59.634080	-0.041481	-32.277590
1.850000	-0.038421	-29.791257	-38.023176	58.840973	-38.023176	58.840973	-0.042631	-33.151230
1.900000	-0.039466	-30.577409	-37.822035	58.050927	-37.822035	58.050927	-0.043780	-34.023391
1.950000	-0.040512	-31.362376	-37.627615	57.264048	-37.627615	57.264048	-0.044928	-34.894048
2.000000	-0.041558	-32.146138	-37.439605	56.480438	-37.439605	56.480438	-0.046077	-35.763177
2.050000	-0.042604	-32.928676	-37.257715	55.700199	-37.257715	55.700199	-0.047227	-36.630753
2.100000	-0.043652	-33.709969	-37.081678	54.923428	-37.081678	54.923428	-0.048377	-37.496752
2.150000	-0.044702	-34.489999	-36.911240	54.150225	-36.911240	54.150225	-0.049528	-38.361151
2.200000	-0.045753	-35.268748	-36.746169	53.380684	-36.746169	53.380684	-0.050682	-39.223927
2.250000	-0.046806	-36.046197	-36.586245	52.614900	-36.586245	52.614900	-0.051837	-40.085059
2.300000	-0.047861	-36.822327	-36.431260	51.852967	-36.431260	51.852967	-0.052994	-40.944526
2.350000	-0.048919	-37.597122	-36.281023	51.094976	-36.281023	51.094976	-0.054155	-41.802305
2.400000	-0.049980	-38.370564	-36.135352	50.341019	-36.135352	50.341019	-0.055318	-42.658378
2.450000	-0.051044	-39.142638	-35.994073	49.591184	-35.994073	49.591184	-0.056485	-43.512724
2.500000	-0.052111	-39.913325	-35.857026	48.845560	-35.857026	48.845560	-0.057655	-44.365326
2.550000	-0.053183	-40.682550	-35.724143	48.104426	-35.724143	48.104426	-0.058829	-45.216087
2.600000	-0.054258	-41.450357	-35.595190	47.367684	-35.595190	47.367684	-0.060008	-46.065065
2.650000	-0.055337	-42.216731	-35.470030	46.635421	-35.470030	46.635421	-0.061192	-46.912244
2.700000	-0.056422	-42.981657	-35.348533	45.907719	-35.348533	45.907719	-0.062381	-47.757608
2.750000	-0.057511	-43.745121	-35.230573	45.184662	-35.230573	45.184662	-0.063575	-48.601141
2.800000	-0.058605	-44.507111	-35.116032	44.466333	-35.116032	44.466333	-0.064774	-49.442829
2.850000	-0.059705	-45.267611	-35.004797	43.752813	-35.004797	43.752813	-0.065980	-50.282656
2.900000	-0.060810	-46.026611	-34.896758	43.044181	-34.896758	43.044181	-0.067193	-51.120610
2.950000	-0.061922	-46.784097	-34.791814	42.340517	-34.791814	42.340517	-0.068412	-51.956678
3.000000	-0.063041	-47.540057	-34.689864	41.641901	-34.689864	41.641901	-0.069639	-52.790847
3.050000	-0.064166	-48.294480	-34.590814	40.948407	-34.590814	40.948407	-0.070873	-53.623106
3.100000	-0.065298	-49.047354	-34.494571	40.260114	-34.494571	40.260114	-0.072115	-54.453444
3.150000	-0.066438	-49.798670	-34.401048	39.577097	-34.401048	39.577097	-0.073366	-55.281850
3.200000	-0.067586	-50.548416	-34.310161	38.899430	-34.310161	38.899430	-0.074625	-56.108314
3.250000	-0.068743	-51.296584	-34.221827	38.227186	-34.221827	38.227186	-0.075894	-56.932828
3.300000	-0.069908	-52.043163	-34.135968	37.560438	-34.135968	37.560438	-0.077172	-57.755383
3.350000	-0.071081	-52.788144	-34.052507	36.899256	-34.052507	36.899256	-0.078460	-58.575972
3.400000	-0.072265	-53.531519	-33.971371	36.243712	-33.971371	36.243712	-0.079759	-59.394586
3.450000	-0.073458	-54.273281	-33.892489	35.593873	-33.892489	35.593873	-0.081069	-60.211219
3.500000	-0.074661	-55.013420	-33.815790	34.949809	-33.815790	34.949809	-0.082390	-61.025865
3.550000	-0.075875	-55.751930	-33.741209	34.311585	-33.741209	34.311585	-0.083723	-61.838519
3.600000	-0.077099	-56.488804	-33.668679	33.679268	-33.668679	33.679268	-0.085068	-62.649176
3.650000	-0.078335	-57.224036	-33.598136	33.052922	-33.598136	33.052922	-0.086425	-63.457832
3.700000	-0.079583	-57.957619	-33.529519	32.432609	-33.529519	32.432609	-0.087796	-64.264482
3.750000	-0.080843	-58.689548	-33.462767	31.818393	-33.462767	31.818393	-0.089180	-65.069125
3.800000	-0.082116	-59.419746	-33.397876	31.210602	-33.397876	31.210602	-0.090579	-65.871670
3.850000	-0.083401	-60.148279	-33.334731	30.609032	-33.334731	30.609032	-0.091993	-66.672202
3.900000	-0.084700	-60.875143	-33.273274	30.013740	-33.273274	30.013740	-0.093421	-67.470720
3.950000	-0.086013	-61.600334	-33.213451	29.424781	-33.213451	29.424781	-0.094865	-68.267225
4.000000	-0.087340	-62.323850	-33.155206	28.842210	-33.155206	28.842210	-0.096324	-69.061715
4.050000	-0.088682	-63.045686	-33.098487	28.266079	-33.098487	28.266079	-0.097800	-69.854191
4.100000	-0.090038	-63.765840	-33.043240	27.696439	-33.043240	27.696439	-0.099293	-70.644654
4.150000	-0.091410	-64.484310	-32.989416	27.133340	-32.989416	27.133340	-0.100802	-71.433106
4.200000	-0.092803	-65.200507	-32.937309	26.579140	-32.937309	26.579140	-0.102336	-72.218851
4.250000	-0.094204	-65.915823	-32.886043	26.028394	-32.886043	26.028394	-0.103879	-73.003549
4.300000	-0.095626	-66.629084	-32.836247	25.485795	-32.836247	25.485795	-0.105445	-73.785810
4.350000	-0.097063	-67.340876	-32.787564	24.949015	-32.787564	24.949015	-0.107027	-74.566330
4.400000	-0.098517	-68.050905	-32.740079	24.419303	-32.740079	24.419303	-0.108630	-75.344771
4.450000	-0.099991	-68.759171	-32.693774	23.896660	-32.693774	23.896660	-0.110253	-76.121132
4.500000	-0.101480	-69.465969	-32.648422	23.379967	-32.648422	23.379967	-0.111894	-76.895770
4.550000	-0.102991	-70.170712	-32.604293	22.871607	-32.604293	22.871607	-0.113560	-77.667996
4.600000	-0.104517	-70.874282	-32.560902	22.368048	-32.560902	22.368048	-0.115242	-78.438852
4.650000	-0.106068	-71.575506	-32.518750	21.874092	-32.518750	21.874092	-0.116953	-79.206970
4.700000	-0.107631	-72.275854	-32.477147	21.383761	-32.477147	21.383761	-0.118676	-79.974068
4.750000	-0.109225	-72.973570	-32.436776	20.904306	-32.436776	20.904306	-0.120434	-80.738110
4.800000	-0.110826	-73.670703	-32.396795	20.427277	-32.396795	20.427277	-0.122200	-81.501479
4.850000	-0.112464	-74.364922	-32.358010	19.962385	-32.358010	19.962385	-0.124007	-82.261482
4.900000	-0.114105	-75.058851	-32.319486	19.498709	-32.319486	19.498709	-0.125818	-83.021151
4.950000	-0.115788	-75.749590	-32.282095	19.048412	-32.282095	19.048412	-0.127675	-83.777156
5.000000	-0.117472	-76.440328	-32.244864	18.598115	-32.244864	18.598115	-0.129533	-84.533161
5.050000	-0.119202	-77.127605	-32.208675	18.162407	-32.208675	18.162407	-0.131443	-85.285212
5.100000	-0.120933	-77.814882	-32.172637	17.726699	-32.172637	17.726699	-0.133353	-86.037264
5.150000	-0.122709	-78.499006	-32.137401	17.304321	-32.137401	17.304321	-0.135313	-86.785736
5.200000	-0.124488	-79.182844	-32.102366	16.883155	-32.102366	16.883155	-0.137278	-87.533884
5.250000	-0.126310	-79.863835	-32.067922	16.474031	-32.067922	16.474031	-0.139289	-88.278822
5.300000	-0.128141	-80.544258	-32.033704	16.067315	-32.033704	16.067315	-0.141310	-89.023118
5.350000	-0.130011	-81.222141	-31.999894	15.671334	-31.999894	15.671334	-0.143374	-89.764569
5.400000	-0.131894	-81.899177	-31.966307	15.278930	-31.966307	15.278930	-0.145453	-90.505071
5.450000	-0.133813	-82.573977	-31.932974	14.895939	-31.932974	14.895939	-0.147572	-91.243083
5.500000	-0.135751	-83.247658	-31.899831	14.517655	-31.899831	14.517655	-0.149710	-91.979851
5.550000	-0.137721	-83.919401	-31.866820	14.147463	-31.866820	14.147463	-0.151885	-92.714478
5.600000	-0.139714	-84.589760	-31.833938	13.783050	-31.833938	13.783050	-0.154085	-93.447576
5.650000	-0.141736	-85.258477	-31.801096	13.425420	-31.801096	13.425420	-0.156317	-94.178872
5.700000	-0.143787	-85.925551	-31.768294	13.074571	-31.768294	13.074571	-0.158581	-94.908367
5.750000	-0.145863	-86.591273	-31.735470	12.729220	-31.735470	12.729220	-0.160872	-95.636390
5.800000	-0.147974	-87.255102	-31.702568	12.391564	-31.702568	12.391564	-0.163201	-96.362353
5.850000	-0.150105	-87.917863	-31.669615	12.058159	-31.669615	12.058159	-0.165552	-97.087163
5.900000	-0.152276	-88.578487	-31.636437	11.733258	-31.636437	11.733258	-0.167948	-97.809668
5.950000	-0.154464	-89.238322	-31.603210	11.411419	-31.603210	11.411419	-0.170361	-98.531327
6.000000	-0.156698	-89.895788	-31.569584	11.098765	-31.569584	11.098765	-0.172825	-99.250451
6.050000	-0.158944	-90.552734	-31.535942	10.788056	-31.535942	10.788056	-0.175301	-99.969024
6.100000	-0.161242	-91.207087	-31.501701	10.487073	-31.501701	10.487073	-0.177835	-100.684847
6.150000	-0.163547	-91.861184	-31.467508	10.187007	-31.467508	10.187007	-0.180376	-101.400401
6.200000	-0.165912	-92.512473	-31.432491	9.897044	-31.432491	9.897044	-0.182982	-102.113006
6.250000	-0.168277	-93.163763	-31.397615	9.607080	-31.397615	9.607080	-0.185588	-102.825610
6.300000	-0.170710	-93.812040	-31.361668	9.327416	-31.361668	9.327416	-0.188268	-103.535082
6.350000	-0.173143	-94.460317	-31.325869	9.047752	-31.325869	9.047752	-0.190948	-104.244554
6.400000	-0.175639	-95.105883	-31.288961	8.776804	-31.288961	8.776804	-0.193696	-104.951237
6.450000	-0.178142	-95.751202	-31.252096	8.506648	-31.252096	8.506648	-0.196451	-105.657665
6.500000	-0.180703	-96.394103	-31.214116	8.243700	-31.214116	8.243700	-0.199269	-106.361633
6.550000	-0.183277	-97.036520	-31.176050	7.982194	-31.176050	7.982194	-0.202100	-107.065109
6.600000	-0.185904	-97.676804	-31.136898	7.726484	-31.136898	7.726484	-0.204990	-107.766442
6.650000	-0.188550	-98.316377	-31.097506	7.472705	-31.097506	7.472705	-0.207900	-108.467059
6.700000	-0.191246	-98.954094	-31.057090	7.223426	-31.057090	7.223426	-0.210862	-109.165835
6.750000	-0.193966	-99.590883	-31.016262	6.976396	-31.016262	6.976396	-0.213851	-109.863690
6.800000	-0.196730	-100.226084	-30.974501	6.732702	-30.974501	6.732702	-0.216887	-110.559992
6.850000	-0.199527	-100.860151	-30.932139	6.491390	-30.932139	6.491390	-0.219958	-111.255184
6.900000	-0.202361	-101.492890	-30.888961	6.252402	-30.888961	6.252402	-0.223069	-111.949095
6.950000	-0.205235	-102.124299	-30.844981	6.015738	-30.844981	6.015738	-0.226222	-112.641724
7.000000	-0.208141	-102.754628	-30.800330	5.780550	-30.800330	5.780550	-0.229410	-113.333329
7.050000	-0.211093	-103.383446	-30.754664	5.547428	-30.754664	5.547428	-0.232646	-114.023500
7.100000	-0.214073	-104.011422	-30.708494	5.315114	-30.708494	5.315114	-0.235912	-114.712887
7.150000	-0.217105	-104.637716	-30.661090	5.084412	-30.661090	5.084412	-0.239234	-115.400705
7.200000	-0.220159	-105.263396	-30.613367	4.854031	-30.613367	4.854031	-0.242578	-116.087962
7.250000	-0.223273	-105.887235	-30.564189	4.624616	-30.564189	4.624616	-0.245987	-116.773536
7.300000	-0.226403	-106.510677	-30.514895	4.395227	-30.514895	4.395227	-0.249412	-117.458754
7.350000	-0.229600	-107.132133	-30.463924	4.165970	-30.463924	4.165970	-0.252908	-118.142193
7.400000	-0.232806	-107.753397	-30.413050	3.936633	-30.413050	3.936633	-0.256414	-118.825463
7.450000	-0.236089	-108.372543	-30.360284	3.706424	-30.360284	3.706424	-0.260000	-119.506881
7.500000	-0.239373	-108.991689	-30.307838	3.476215	-30.307838	3.476215	-0.263588	-120.188298
7.550000	-0.242741	-109.608600	-30.253292	3.243975	-30.253292	3.243975	-0.267265	-120.867808
7.600000	-0.246112	-110.225511	-30.199087	3.011734	-30.199087	3.011734	-0.270943	-121.547317
7.650000	-0.249561	-110.840444	-30.142995	2.776683	-30.142995	2.776683	-0.274705	-122.225186
7.700000	-0.253019	-111.455196	-30.087063	2.541376	-30.087063	2.541376	-0.278475	-122.902905
7.750000	-0.256550	-112.068215	-30.029470	2.302698	-30.029470	2.302698	-0.282322	-123.579231
7.800000	-0.260096	-112.680887	-29.971855	2.063345	-29.971855	2.063345	-0.286186	-124.255278
7.850000	-0.263710	-113.292059	-29.912817	1.820276	-29.912817	1.820276	-0.290120	-124.930162
7.900000	-0.267348	-113.902730	-29.853580	1.575968	-29.853580	1.575968	-0.294078	-125.604658
7.950000	-0.271045	-114.512122	-29.793160	1.327800	-29.793160	1.327800	-0.298099	-126.278203
8.000000	-0.274774	-115.120874	-29.732372	1.077702	-29.732372	1.077702	-0.302153	-126.951271
8.050000	-0.278557	-115.728554	-29.670644	0.823792	-29.670644	0.823792	-0.306262	-127.623579
8.100000	-0.282379	-116.335469	-29.608386	0.567159	-29.608386	0.567159	-0.310413	-128.295345
8.150000	-0.286248	-116.941509	-29.545429	0.306932	-29.545429	0.306932	-0.314612	-128.966522
8.200000	-0.290165	-117.546672	-29.481792	0.043111	-29.481792	0.043111	-0.318860	-129.637112
8.250000	-0.294121	-118.151141	-29.417691	-0.223937	-29.417691	-0.223937	-0.323149	-130.307266
8.300000	-0.298133	-118.754639	-29.352772	-0.495502	-29.352772	-0.495502	-0.327496	-130.976809
8.350000	-0.302177	-119.357610	-29.287615	-0.769800	-29.287615	-0.769800	-0.331876	-131.646046
8.400000	-0.306285	-119.959529	-29.221516	-1.049562	-29.221516	-1.049562	-0.336322	-132.314674
8.450000	-0.310419	-120.561075	-29.155395	-1.331462	-29.155395	-1.331462	-0.340795	-132.983106
8.500000	-0.314625	-121.161505	-29.088222	-1.619774	-29.088222	-1.619774	-0.345342	-133.650952
8.550000	-0.318849	-121.761702	-29.021229	-1.909552	-29.021229	-1.909552	-0.349907	-134.318690
8.600000	-0.323154	-122.360734	-28.953086	-2.206664	-28.953086	-2.206664	-0.354555	-134.985889
8.650000	-0.327470	-122.959656	-28.885313	-2.504521	-28.885313	-2.504521	-0.359214	-135.653046
8.700000	-0.331874	-123.557382	-28.816306	-2.810585	-28.816306	-2.810585	-0.363964	-136.319736
8.750000	-0.336282	-124.155108	-28.747843	-3.116648	-28.747843	-3.116648	-0.368717	-136.986427
8.800000	-0.340788	-124.751621	-28.678073	-3.431721	-28.678073	-3.431721	-0.373570	-137.652748
8.850000	-0.345296	-125.348135	-28.608860	-3.746794	-28.608860	-3.746794	-0.378426	-138.319070
8.900000	-0.349895	-125.943625	-28.538573	-4.070098	-28.538573	-4.070098	-0.383375	-138.985184
8.950000	-0.354506	-126.539022	-28.468705	-4.394149	-28.468705	-4.394149	-0.388334	-139.651279
9.000000	-0.359200	-127.133569	-28.397981	-4.725589	-28.397981	-4.725589	-0.393379	-140.317305
9.050000	-0.363913	-127.727947	-28.327547	-5.058506	-28.327547	-5.058506	-0.398443	-140.983317
9.100000	-0.368702	-128.321635	-28.256458	-5.397932	-28.256458	-5.397932	-0.403583	-141.649378
9.150000	-0.373519	-128.915092	-28.185542	-5.739527	-28.185542	-5.739527	-0.408752	-142.315454
9.200000	-0.378404	-129.508003	-28.114154	-6.086738	-28.114154	-6.086738	-0.413989	-142.981673
9.250000	-0.383326	-130.100641	-28.042830	-6.436758	-28.042830	-6.436758	-0.419263	-143.647963
9.300000	-0.388308	-130.692860	-27.971201	-6.791512	-27.971201	-6.791512	-0.424597	-144.314465
9.350000	-0.393334	-131.284780	-27.899533	-7.149646	-27.899533	-7.149646	-0.429976	-144.981120
9.400000	-0.398413	-131.876393	-27.827715	-7.511658	-27.827715	-7.511658	-0.435408	-145.648034
9.450000	-0.403545	-132.467700	-27.755756	-7.877548	-27.755756	-7.877548	-0.440892	-146.315207
9.500000	-0.408722	-133.058795	-27.683791	-8.246503	-27.683791	-8.246503	-0.446422	-146.982661
9.550000	-0.413960	-133.649594	-27.611587	-8.619751	-27.611587	-8.619751	-0.452012	-147.650509
9.600000	-0.419235	-134.240260	-27.539508	-8.995309	-27.539508	-8.995309	-0.457639	-148.318635
9.650000	-0.424581	-134.830659	-27.467090	-9.375486	-27.467090	-9.375486	-0.463335	-148.987317
9.700000	-0.429954	-135.420986	-27.394923	-9.757283	-27.394923	-9.757283	-0.469059	-149.656248
9.750000	-0.435407	-136.011094	-27.322315	-10.143941	-27.322315	-10.143941	-0.474861	-150.325925
9.800000	-0.440879	-136.601173	-27.250076	-10.531601	-27.250076	-10.531601	-0.480683	-150.995796
9.850000	-0.446439	-137.191104	-27.177286	-10.924275	-27.177286	-10.924275	-0.486590	-151.666633
9.900000	-0.452011	-137.781028	-27.104984	-11.317412	-27.104984	-11.317412	-0.492509	-152.337581
9.950000	-0.457679	-138.370893	-27.032011	-11.715633	-27.032011	-11.715633	-0.498521	-153.009746
10.000000	-0.463350	-138.960758	-26.959646	-12.113855	-26.959646	-12.113855	-0.504537	-153.681910
