! freq	dB(S11)	phase(S11)	dB(S12)	phase(S12)	
!     	dB(S21)	phase(S21)	dB(S22)	phase(S22)	
!S-par simulation data
#  GHz  S  DB  R 50
0.000000	-0.000000	0.000000	-301.877142	0.000000	-301.877142	0.000000	-0.000000	0.000000
0.050000	-0.000533	-0.883034	-54.272095	88.779613	-54.272095	88.779613	-0.000774	-1.226074
0.100000	-0.001870	-1.762824	-48.268601	87.616993	-48.268601	87.616993	-0.002652	-2.446745
0.150000	-0.003546	-2.638572	-44.765681	86.517757	-44.765681	86.517757	-0.004897	-3.661086
0.200000	-0.005228	-3.511201	-42.283906	85.459800	-42.283906	85.459800	-0.007062	-4.870891
0.250000	-0.006806	-4.382218	-40.359578	84.419574	-40.359578	84.419574	-0.009062	-6.078478
0.300000	-0.008265	-5.252307	-38.787772	83.387284	-38.787772	83.387284	-0.010910	-7.284817
0.350000	-0.009627	-6.121900	-37.459341	82.357348	-37.459341	82.357348	-0.012659	-8.490470
0.400000	-0.010927	-6.991166	-36.309310	81.327415	-36.309310	81.327415	-0.014354	-9.695625
0.450000	-0.012191	-7.860104	-35.295981	80.296627	-35.295981	80.296627	-0.016033	-10.900224
0.500000	-0.013448	-8.728693	-34.390534	79.265039	-34.390534	79.265039	-0.017718	-12.104206
0.550000	-0.014714	-9.596863	-33.572562	78.232891	-33.572562	78.232891	-0.019424	-13.307431
0.600000	-0.016000	-10.464535	-32.826983	77.200498	-32.826983	77.200498	-0.021157	-14.509745
0.650000	-0.017315	-11.331635	-32.142331	76.168187	-32.142331	76.168187	-0.022923	-15.710999
0.700000	-0.018664	-12.198090	-31.509686	75.136269	-31.509686	75.136269	-0.024724	-16.911046
0.750000	-0.020055	-13.063786	-30.922096	74.105090	-30.922096	74.105090	-0.026564	-18.109660
0.800000	-0.021488	-13.928657	-30.373829	73.074941	-30.373829	73.074941	-0.028444	-19.306704
0.850000	-0.022964	-14.792661	-29.860153	72.046054	-29.860153	72.046054	-0.030361	-20.502088
0.900000	-0.024480	-15.655811	-29.377038	71.018533	-29.377038	71.018533	-0.032313	-21.695829
0.950000	-0.026039	-16.518009	-28.921350	69.992643	-28.921350	69.992643	-0.034301	-22.887731
1.000000	-0.027638	-17.379207	-28.490333	68.968562	-28.490333	68.968562	-0.036324	-24.077700
1.050000	-0.029277	-18.239365	-28.081629	67.946450	-28.081629	67.946450	-0.038380	-25.265651
1.100000	-0.030955	-19.098441	-27.693208	66.926451	-27.693208	66.926451	-0.040468	-26.451505
1.150000	-0.032669	-19.956400	-27.323308	65.908698	-27.323308	65.908698	-0.042587	-27.635188
1.200000	-0.034418	-20.813204	-26.970387	64.893315	-26.970387	64.893315	-0.044734	-28.816634
1.250000	-0.036199	-21.668823	-26.633093	63.880414	-26.633093	63.880414	-0.046908	-29.995779
1.300000	-0.038013	-22.523170	-26.310309	62.870216	-26.310309	62.870216	-0.049108	-31.172461
1.350000	-0.039856	-23.376269	-26.000887	61.862710	-26.000887	61.862710	-0.051333	-32.346725
1.400000	-0.041726	-24.228091	-25.703879	60.857984	-25.703879	60.857984	-0.053579	-33.518521
1.450000	-0.043622	-25.078611	-25.418431	59.856124	-25.418431	59.856124	-0.055847	-34.687802
1.500000	-0.045541	-25.927803	-25.143776	58.857211	-25.143776	58.857211	-0.058134	-35.854523
1.550000	-0.047483	-26.775644	-24.879219	57.861320	-24.879219	57.861320	-0.060440	-37.018642
1.600000	-0.049446	-27.622111	-24.624131	56.868528	-24.624131	56.868528	-0.062763	-38.180119
1.650000	-0.051428	-28.467183	-24.377936	55.878908	-24.377936	55.878908	-0.065101	-39.338918
1.700000	-0.053428	-29.310837	-24.140107	54.892533	-24.140107	54.892533	-0.067456	-40.495002
1.750000	-0.055445	-30.153055	-23.910162	53.909478	-23.910162	53.909478	-0.069824	-41.648338
1.800000	-0.057479	-30.993817	-23.687653	52.929818	-23.687653	52.929818	-0.072207	-42.798894
1.850000	-0.059527	-31.833103	-23.472166	51.953632	-23.472166	51.953632	-0.074602	-43.946640
1.900000	-0.061590	-32.670896	-23.263314	50.981001	-23.263314	50.981001	-0.077009	-45.091548
1.950000	-0.063666	-33.507178	-23.060732	50.012005	-23.060732	50.012005	-0.079429	-46.233589
2.000000	-0.065755	-34.341932	-22.864072	49.046718	-22.864072	49.046718	-0.081860	-47.372739
2.050000	-0.067856	-35.175141	-22.672999	48.085201	-22.672999	48.085201	-0.084302	-48.508973
2.100000	-0.069969	-36.006790	-22.487186	47.127475	-22.487186	47.127475	-0.086755	-49.642269
2.150000	-0.072094	-36.836862	-22.306305	46.173482	-22.306305	46.173482	-0.089219	-50.772606
2.200000	-0.074229	-37.665343	-22.130024	45.223014	-22.130024	45.223014	-0.091694	-51.899963
2.250000	-0.076375	-38.492217	-21.958003	44.275595	-21.958003	44.275595	-0.094179	-53.024322
2.300000	-0.078531	-39.317471	-21.789908	43.330295	-21.789908	43.330295	-0.096675	-54.145666
2.350000	-0.080698	-40.141090	-21.625434	42.385513	-21.625434	42.385513	-0.099181	-55.263978
2.400000	-0.082875	-40.963061	-21.464384	41.438812	-21.464384	41.438812	-0.101697	-56.379246
2.450000	-0.085062	-41.783371	-21.306781	40.487117	-21.306781	40.487117	-0.104225	-57.491454
2.500000	-0.087259	-42.602007	-21.152992	39.527710	-21.152992	39.527710	-0.106763	-58.600593
2.550000	-0.089467	-43.418882	-21.003817	38.559975	-21.003817	38.559975	-0.109312	-59.706517
2.600000	-0.091685	-44.234057	-20.859840	37.588076	-20.859840	37.588076	-0.111873	-60.809351
2.650000	-0.093914	-45.047522	-20.721167	36.618170	-20.721167	36.618170	-0.114446	-61.909088
2.700000	-0.096153	-45.859264	-20.587335	35.655563	-20.587335	35.655563	-0.117030	-63.005722
2.750000	-0.098402	-46.669274	-20.457616	34.702841	-20.457616	34.702841	-0.119626	-64.099249
2.800000	-0.100663	-47.477540	-20.331336	33.760138	-20.331336	33.760138	-0.122234	-65.189665
2.850000	-0.102934	-48.284054	-20.208008	32.826291	-20.208008	32.826291	-0.124855	-66.276969
2.900000	-0.105217	-49.088806	-20.087326	31.899801	-20.087326	31.899801	-0.127490	-67.361161
2.950000	-0.107511	-49.891786	-19.969112	30.979327	-19.969112	30.979327	-0.130137	-68.442243
3.000000	-0.109817	-50.692986	-19.853260	30.063830	-19.853260	30.063830	-0.132798	-69.520215
3.050000	-0.112136	-51.492399	-19.739701	29.152566	-19.739701	29.152566	-0.135473	-70.595084
3.100000	-0.114467	-52.290016	-19.628380	28.245022	-19.628380	28.245022	-0.138163	-71.666855
3.150000	-0.116810	-53.085830	-19.519250	27.340853	-19.519250	27.340853	-0.140868	-72.735533
3.200000	-0.119167	-53.879835	-19.412264	26.439828	-19.412264	26.439828	-0.143587	-73.801129
3.250000	-0.121536	-54.672024	-19.307376	25.541795	-19.307376	25.541795	-0.146323	-74.863651
3.300000	-0.123920	-55.462392	-19.204537	24.646654	-19.204537	24.646654	-0.149075	-75.923110
3.350000	-0.126318	-56.250933	-19.103697	23.754341	-19.103697	23.754341	-0.151843	-76.979520
3.400000	-0.128730	-57.037643	-19.004807	22.864815	-19.004807	22.864815	-0.154628	-78.032894
3.450000	-0.131157	-57.822517	-18.907816	21.978052	-18.907816	21.978052	-0.157431	-79.083248
3.500000	-0.133599	-58.605551	-18.812675	21.094037	-18.812675	21.094037	-0.160252	-80.130598
3.550000	-0.136057	-59.386743	-18.719333	20.212764	-18.719333	20.212764	-0.163091	-81.174961
3.600000	-0.138530	-60.166088	-18.627742	19.334231	-18.627742	19.334231	-0.165949	-82.216359
3.650000	-0.141020	-60.943585	-18.537853	18.458440	-18.537853	18.458440	-0.168827	-83.254810
3.700000	-0.143526	-61.719231	-18.449618	17.585395	-18.449618	17.585395	-0.171724	-84.290338
3.750000	-0.146050	-62.493026	-18.362990	16.715101	-18.362990	16.715101	-0.174642	-85.322965
3.800000	-0.148592	-63.264888	-18.277953	15.847682	-18.277953	15.847682	-0.177581	-86.352592
3.850000	-0.151151	-64.034896	-18.194431	14.983026	-18.194431	14.983026	-0.180542	-87.379372
3.900000	-0.153729	-64.803051	-18.112378	14.121137	-18.112378	14.121137	-0.183525	-88.403331
3.950000	-0.156326	-65.569354	-18.031753	13.262020	-18.031753	13.262020	-0.186530	-89.424497
4.000000	-0.158942	-66.333804	-17.952511	12.405679	-17.952511	12.405679	-0.189559	-90.442901
4.050000	-0.161577	-67.096405	-17.874612	11.552116	-17.874612	11.552116	-0.192611	-91.458573
4.100000	-0.164232	-67.857157	-17.798015	10.701334	-17.798015	10.701334	-0.195687	-92.471546
4.150000	-0.166907	-68.616063	-17.722679	9.853331	-17.722679	9.853331	-0.198788	-93.481851
4.200000	-0.169604	-69.373126	-17.648565	9.008107	-17.648565	9.008107	-0.201914	-94.489524
4.250000	-0.172321	-70.128349	-17.575636	8.165659	-17.575636	8.165659	-0.205066	-95.494600
4.300000	-0.175060	-70.881736	-17.503854	7.325981	-17.503854	7.325981	-0.208245	-96.497116
4.350000	-0.177821	-71.633290	-17.433182	6.489068	-17.433182	6.489068	-0.211450	-97.497108
4.400000	-0.180605	-72.383017	-17.363583	5.654911	-17.363583	5.654911	-0.214683	-98.494616
4.450000	-0.183412	-73.130921	-17.295023	4.823499	-17.295023	4.823499	-0.217944	-99.489678
4.500000	-0.186242	-73.877008	-17.227467	3.994821	-17.227467	3.994821	-0.221234	-100.482337
4.550000	-0.189096	-74.621283	-17.160881	3.168860	-17.160881	3.168860	-0.224554	-101.472632
4.600000	-0.191975	-75.363753	-17.095233	2.345602	-17.095233	2.345602	-0.227903	-102.460608
4.650000	-0.194879	-76.104424	-17.030489	1.525027	-17.030489	1.525027	-0.231284	-103.446307
4.700000	-0.197808	-76.843303	-16.966618	0.707114	-16.966618	0.707114	-0.234695	-104.429775
4.750000	-0.200764	-77.580398	-16.903589	-0.108160	-16.903589	-0.108160	-0.238139	-105.411056
4.800000	-0.203746	-78.315716	-16.841371	-0.920819	-16.841371	-0.920819	-0.241616	-106.390197
4.850000	-0.206755	-79.049266	-16.779934	-1.730890	-16.779934	-1.730890	-0.245125	-107.367246
4.900000	-0.209792	-79.781055	-16.719250	-2.538404	-16.719250	-2.538404	-0.248669	-108.342250
4.950000	-0.212857	-80.511094	-16.659290	-3.343390	-16.659290	-3.343390	-0.252248	-109.315259
5.000000	-0.215951	-81.239390	-16.600026	-4.145883	-16.600026	-4.145883	-0.255862	-110.286322
5.050000	-0.219076	-81.965880	-16.541441	-4.945812	-16.541441	-4.945812	-0.259513	-111.255411
5.100000	-0.222232	-82.690648	-16.483497	-5.743323	-16.483497	-5.743323	-0.263202	-112.222662
5.150000	-0.225418	-83.413705	-16.426168	-6.538455	-16.426168	-6.538455	-0.266928	-113.188127
5.200000	-0.228636	-84.135063	-16.369427	-7.331250	-16.369427	-7.331250	-0.270693	-114.151860
5.250000	-0.231887	-84.854731	-16.313251	-8.121749	-16.313251	-8.121749	-0.274497	-115.113915
5.300000	-0.235171	-85.572721	-16.257615	-8.909999	-16.257615	-8.909999	-0.278341	-116.074347
5.350000	-0.238489	-86.289046	-16.202496	-9.696043	-16.202496	-9.696043	-0.282225	-117.033211
5.400000	-0.241841	-87.003717	-16.147870	-10.479931	-16.147870	-10.479931	-0.286151	-117.990564
5.450000	-0.245229	-87.716747	-16.093716	-11.261710	-16.093716	-11.261710	-0.290119	-118.946464
5.500000	-0.248654	-88.428149	-16.040010	-12.041432	-16.040010	-12.041432	-0.294130	-119.900967
5.550000	-0.252115	-89.137936	-15.986733	-12.819148	-15.986733	-12.819148	-0.298184	-120.854134
5.600000	-0.255615	-89.846121	-15.933862	-13.594912	-15.933862	-13.594912	-0.302284	-121.806023
5.650000	-0.259154	-90.552720	-15.881379	-14.368777	-15.881379	-14.368777	-0.306429	-122.756694
5.700000	-0.262733	-91.257745	-15.829263	-15.140800	-15.829263	-15.140800	-0.310620	-123.706208
5.750000	-0.266353	-91.961211	-15.777494	-15.911036	-15.777494	-15.911036	-0.314858	-124.654627
5.800000	-0.270015	-92.663134	-15.726055	-16.679543	-15.726055	-16.679543	-0.319144	-125.602013
5.850000	-0.273719	-93.363529	-15.674927	-17.446380	-15.674927	-17.446380	-0.323479	-126.548429
5.900000	-0.277468	-94.062411	-15.624092	-18.211607	-15.624092	-18.211607	-0.327863	-127.493937
5.950000	-0.281261	-94.759797	-15.573534	-18.975283	-15.573534	-18.975283	-0.332298	-128.438604
6.000000	-0.285100	-95.455702	-15.523235	-19.737469	-15.523235	-19.737469	-0.336784	-129.382493
6.050000	-0.288987	-96.150144	-15.473180	-20.498228	-15.473180	-20.498228	-0.341323	-130.325670
6.100000	-0.292921	-96.843139	-15.423352	-21.257622	-15.423352	-21.257622	-0.345915	-131.268200
6.150000	-0.296905	-97.534705	-15.373736	-22.015715	-15.373736	-22.015715	-0.350561	-132.210152
6.200000	-0.300939	-98.224858	-15.324318	-22.772570	-15.324318	-22.772570	-0.355262	-133.151593
6.250000	-0.305025	-98.913618	-15.275082	-23.528252	-15.275082	-23.528252	-0.360018	-134.092590
6.300000	-0.309166	-99.600943	-15.226010	-24.282780	-15.226010	-24.282780	-0.364834	-135.033199
6.350000	-0.313361	-100.286912	-15.177092	-25.036272	-15.177092	-25.036272	-0.369708	-135.973510
6.400000	-0.317610	-100.971544	-15.128315	-25.788794	-15.128315	-25.788794	-0.374641	-136.913592
6.450000	-0.321916	-101.654858	-15.079666	-26.540411	-15.079666	-26.540411	-0.379633	-137.853516
6.500000	-0.326280	-102.336874	-15.031132	-27.291191	-15.031132	-27.291191	-0.384687	-138.793354
6.550000	-0.330702	-103.017610	-14.982703	-28.041202	-14.982703	-28.041202	-0.389801	-139.733177
6.600000	-0.335184	-103.697087	-14.934365	-28.790511	-14.934365	-28.790511	-0.394979	-140.673059
6.650000	-0.339728	-104.375324	-14.886108	-29.539186	-14.886108	-29.539186	-0.400220	-141.613072
6.700000	-0.344334	-105.052343	-14.837920	-30.287296	-14.837920	-30.287296	-0.405526	-142.553291
6.750000	-0.349003	-105.728162	-14.789792	-31.034910	-14.789792	-31.034910	-0.410898	-143.493789
6.800000	-0.353738	-106.402803	-14.741713	-31.782096	-14.741713	-31.782096	-0.416336	-144.434643
6.850000	-0.358539	-107.076287	-14.693672	-32.528924	-14.693672	-32.528924	-0.421842	-145.375928
6.900000	-0.363407	-107.748633	-14.645661	-33.275464	-14.645661	-33.275464	-0.427416	-146.317720
6.950000	-0.368344	-108.419865	-14.597670	-34.021786	-14.597670	-34.021786	-0.433061	-147.260097
7.000000	-0.373352	-109.090002	-14.549690	-34.767960	-14.549690	-34.767960	-0.438776	-148.203136
7.050000	-0.378430	-109.759066	-14.501712	-35.514057	-14.501712	-35.514057	-0.444563	-149.146916
7.100000	-0.383582	-110.427078	-14.453728	-36.260148	-14.453728	-36.260148	-0.450422	-150.091515
7.150000	-0.388807	-111.094060	-14.405730	-37.006304	-14.405730	-37.006304	-0.456356	-151.037014
7.200000	-0.394108	-111.760035	-14.357710	-37.752597	-14.357710	-37.752597	-0.462365	-151.983491
7.250000	-0.399486	-112.425023	-14.309661	-38.499098	-14.309661	-38.499098	-0.468449	-152.931029
7.300000	-0.404942	-113.089046	-14.261575	-39.245880	-14.261575	-39.245880	-0.474611	-153.879708
7.350000	-0.410478	-113.752127	-14.213446	-39.993015	-14.213446	-39.993015	-0.480851	-154.829611
7.400000	-0.416094	-114.414288	-14.165267	-40.740575	-14.165267	-40.740575	-0.487170	-155.780821
7.450000	-0.421793	-115.075550	-14.117031	-41.488634	-14.117031	-41.488634	-0.493569	-156.733420
7.500000	-0.427575	-115.735936	-14.068732	-42.237266	-14.068732	-42.237266	-0.500050	-157.687493
7.550000	-0.433446	-116.395432	-14.020350	-42.986575	-14.020350	-42.986575	-0.506616	-158.643197
7.600000	-0.439404	-117.054098	-13.971894	-43.736611	-13.971894	-43.736611	-0.513266	-159.600552
7.650000	-0.445450	-117.711956	-13.923357	-44.487448	-13.923357	-44.487448	-0.520001	-160.559644
7.700000	-0.451585	-118.369030	-13.874735	-45.239162	-13.874735	-45.239162	-0.526822	-161.520561
7.750000	-0.457811	-119.025340	-13.826024	-45.991827	-13.826024	-45.991827	-0.533729	-162.483389
7.800000	-0.464130	-119.680910	-13.777218	-46.745519	-13.777218	-46.745519	-0.540725	-163.448217
7.850000	-0.470543	-120.335762	-13.728314	-47.500315	-13.728314	-47.500315	-0.547809	-164.415132
7.900000	-0.477052	-120.989918	-13.679308	-48.256291	-13.679308	-48.256291	-0.554984	-165.384224
7.950000	-0.483657	-121.643401	-13.630195	-49.013523	-13.630195	-49.013523	-0.562249	-166.355583
8.000000	-0.490361	-122.296232	-13.580972	-49.772090	-13.580972	-49.772090	-0.569607	-167.329298
8.050000	-0.497166	-122.948434	-13.531637	-50.532069	-13.531637	-50.532069	-0.577058	-168.305462
8.100000	-0.504072	-123.600030	-13.482186	-51.293539	-13.482186	-51.293539	-0.584604	-169.284164
8.150000	-0.511081	-124.251041	-13.432616	-52.056578	-13.432616	-52.056578	-0.592244	-170.265499
8.200000	-0.518195	-124.901490	-13.382925	-52.821266	-13.382925	-52.821266	-0.599982	-171.249557
8.250000	-0.525416	-125.551398	-13.333111	-53.587682	-13.333111	-53.587682	-0.607816	-172.236433
8.300000	-0.532745	-126.200789	-13.283173	-54.355907	-13.283173	-54.355907	-0.615749	-173.226220
8.350000	-0.540184	-126.849684	-13.233107	-55.126022	-13.233107	-55.126022	-0.623781	-174.219013
8.400000	-0.547734	-127.498105	-13.182914	-55.898108	-13.182914	-55.898108	-0.631914	-175.214906
8.450000	-0.555398	-128.146074	-13.132592	-56.672248	-13.132592	-56.672248	-0.640148	-176.213996
8.500000	-0.563177	-128.793613	-13.082140	-57.448524	-13.082140	-57.448524	-0.648485	-177.216377
8.550000	-0.571072	-129.440744	-13.031558	-58.227019	-13.031558	-58.227019	-0.656925	-178.222147
8.600000	-0.579085	-130.087488	-12.980846	-59.007816	-12.980846	-59.007816	-0.665469	-179.231403
8.650000	-0.587219	-130.733868	-12.930004	-59.791001	-12.930004	-59.791001	-0.674118	179.755759
8.700000	-0.595475	-131.379904	-12.879032	-60.576658	-12.879032	-60.576658	-0.682873	178.739240
8.750000	-0.603854	-132.025619	-12.827931	-61.364872	-12.827931	-61.364872	-0.691734	177.718941
8.800000	-0.612364	-132.671022	-12.776684	-62.155849	-12.776684	-62.155849	-0.700708	176.694592
8.850000	-0.621002	-133.316148	-12.725310	-62.949564	-12.725310	-62.949564	-0.709790	175.666258
8.900000	-0.629768	-133.961018	-12.673812	-63.746104	-12.673812	-63.746104	-0.718981	174.633838
8.950000	-0.638666	-134.605653	-12.622191	-64.545557	-12.622191	-64.545557	-0.728282	173.597233
9.000000	-0.647698	-135.250075	-12.570450	-65.348013	-12.570450	-65.348013	-0.737693	172.556344
9.050000	-0.656864	-135.894305	-12.518593	-66.153558	-12.518593	-66.153558	-0.747215	171.511070
9.100000	-0.666167	-136.538363	-12.466621	-66.962284	-12.466621	-66.962284	-0.756849	170.461310
9.150000	-0.675609	-137.182269	-12.414540	-67.774280	-12.414540	-67.774280	-0.766596	169.406965
9.200000	-0.685191	-137.826045	-12.362352	-68.589637	-12.362352	-68.589637	-0.776455	168.347933
9.250000	-0.694917	-138.469712	-12.310063	-69.408446	-12.310063	-69.408446	-0.786427	167.284113
9.300000	-0.704787	-139.113288	-12.257677	-70.230798	-12.257677	-70.230798	-0.796513	166.215406
9.350000	-0.714804	-139.756795	-12.205199	-71.056785	-12.205199	-71.056785	-0.806712	165.141710
9.400000	-0.724969	-140.400253	-12.152635	-71.886499	-12.152635	-71.886499	-0.817025	164.062925
9.450000	-0.735285	-141.043681	-12.099992	-72.720034	-12.099992	-72.720034	-0.827453	162.978950
9.500000	-0.745755	-141.687099	-12.047275	-73.557481	-12.047275	-73.557481	-0.837995	161.889685
9.550000	-0.756378	-142.330527	-11.994492	-74.398935	-11.994492	-74.398935	-0.848652	160.795030
9.600000	-0.767159	-142.973984	-11.941651	-75.244488	-11.941651	-75.244488	-0.859422	159.694885
9.650000	-0.778099	-143.617491	-11.888760	-76.094234	-11.888760	-76.094234	-0.870307	158.589152
9.700000	-0.789200	-144.261064	-11.835826	-76.948267	-11.835826	-76.948267	-0.881306	157.477732
9.750000	-0.800464	-144.904725	-11.782860	-77.806680	-11.782860	-77.806680	-0.892418	156.360526
9.800000	-0.811893	-145.548492	-11.729871	-78.669568	-11.729871	-78.669568	-0.903644	155.237437
9.850000	-0.823490	-146.192382	-11.676868	-79.537023	-11.676868	-79.537023	-0.914982	154.108368
9.900000	-0.835256	-146.836416	-11.623864	-80.409139	-11.623864	-80.409139	-0.926433	152.973225
9.950000	-0.847194	-147.480611	-11.570868	-81.286008	-11.570868	-81.286008	-0.937995	151.831911
10.000000	-0.859306	-148.124985	-11.517893	-82.167724	-11.517893	-82.167724	-0.949667	150.684333
