! freq	dB(S11)	phase(S11)	dB(S12)	phase(S12)	
!     	dB(S21)	phase(S21)	dB(S22)	phase(S22)	
!S-par simulation data
#  GHz  S  DB  R 50
0.000000	-89.392700	0.000000	-0.000295	0.000000	-0.000295	0.000000	-89.392701	0.000000
0.050000	-70.242924	-84.572500	-0.000434	-0.891817	-0.000434	-0.891817	-70.242488	-84.568398
0.100000	-64.274139	-88.706385	-0.000844	-1.783293	-0.000844	-1.783293	-64.273691	-88.697694
0.150000	-60.779282	-90.729565	-0.001502	-2.674127	-0.001502	-2.674127	-60.778822	-90.716376
0.200000	-58.310177	-92.223092	-0.002376	-3.564086	-0.002376	-3.564086	-58.309702	-92.205409
0.250000	-56.409201	-93.495590	-0.003437	-4.452934	-0.003437	-4.452934	-56.408706	-93.473392
0.300000	-54.869323	-94.672010	-0.004627	-5.340679	-0.004627	-5.340679	-54.868806	-94.645262
0.350000	-53.581945	-95.789347	-0.005917	-6.227254	-0.005917	-6.227254	-53.581403	-95.758001
0.400000	-52.481766	-96.871592	-0.007270	-7.112694	-0.007270	-7.112694	-52.481196	-96.835590
0.450000	-51.526734	-97.932193	-0.008655	-7.997074	-0.008655	-7.997074	-51.526135	-97.891462
0.500000	-50.688216	-98.979373	-0.010049	-8.880499	-0.010049	-8.880499	-50.687586	-98.933827
0.550000	-49.945881	-100.018521	-0.011431	-9.763090	-0.011431	-9.763090	-49.945221	-99.968059
0.600000	-49.284815	-101.053390	-0.012790	-10.644971	-0.012790	-10.644971	-49.284124	-100.997891
0.650000	-48.693793	-102.086731	-0.014115	-11.526264	-0.014115	-11.526264	-48.693072	-102.026057
0.700000	-48.164197	-103.120665	-0.015401	-12.407086	-0.015401	-12.407086	-48.163448	-103.054657
0.750000	-47.689312	-104.156906	-0.016645	-13.287540	-0.016645	-13.287540	-47.688538	-104.085379
0.800000	-47.263845	-105.196907	-0.017848	-14.167722	-0.017848	-14.167722	-47.263048	-105.119652
0.850000	-46.883595	-106.241958	-0.019010	-15.047714	-0.019010	-15.047714	-46.882780	-106.158734
0.900000	-46.545223	-107.293257	-0.020134	-15.927587	-0.020134	-15.927587	-46.544395	-107.203790
0.950000	-46.246081	-108.351964	-0.021222	-16.807404	-0.021222	-16.807404	-46.245246	-108.255942
1.000000	-45.984091	-109.419253	-0.022277	-17.687217	-0.022277	-17.687217	-45.983257	-109.316321
1.050000	-45.757660	-110.496349	-0.023304	-18.567073	-0.023304	-18.567073	-45.756834	-110.386104
1.100000	-45.565610	-111.584575	-0.024304	-19.447011	-0.024304	-19.447011	-45.564803	-111.466556
1.150000	-45.407142	-112.685392	-0.025282	-20.327064	-0.025282	-20.327064	-45.406365	-112.559077
1.200000	-45.281798	-113.800455	-0.026241	-21.207263	-0.026241	-21.207263	-45.281066	-113.665246
1.250000	-45.189451	-114.931667	-0.027184	-22.087633	-0.027184	-22.087633	-45.188781	-114.786879
1.300000	-45.131762	-116.082175	-0.028112	-22.968206	-0.028112	-22.968206	-45.131174	-115.926982
1.350000	-45.107898	-117.253978	-0.029029	-23.848995	-0.029029	-23.848995	-45.107416	-117.087463
1.400000	-45.118755	-118.450324	-0.029937	-24.730018	-0.029937	-24.730018	-45.118409	-118.271420
1.450000	-45.165615	-119.675163	-0.030839	-25.611293	-0.030839	-25.611293	-45.165442	-119.482626
1.500000	-45.250195	-120.933354	-0.031736	-26.492836	-0.031736	-26.492836	-45.250242	-120.725722
1.550000	-45.374718	-122.230942	-0.032631	-27.374660	-0.032631	-27.374660	-45.375043	-122.006489
1.600000	-45.542000	-123.575550	-0.033523	-28.256780	-0.033523	-28.256780	-45.542678	-123.332212
1.650000	-45.755583	-124.976918	-0.034416	-29.139211	-0.034416	-29.139211	-45.756713	-124.712212
1.700000	-46.019904	-126.447685	-0.035311	-30.021965	-0.035311	-30.021965	-46.021618	-126.158585
1.750000	-46.340532	-128.004539	-0.036209	-30.905055	-0.036209	-30.905055	-46.343008	-127.687316
1.800000	-46.724495	-129.669955	-0.037110	-31.788496	-0.037110	-31.788496	-46.727981	-129.319945
1.850000	-47.180735	-131.474897	-0.038017	-32.672298	-0.038017	-32.672298	-47.185584	-131.086183
1.900000	-47.720761	-133.463178	-0.038930	-33.556477	-0.038930	-33.556477	-47.727489	-133.028114
1.950000	-48.359576	-135.698756	-0.039851	-34.441044	-0.039851	-34.441044	-48.368967	-135.207273
2.000000	-49.117031	-138.278512	-0.040779	-35.326012	-0.040779	-35.326012	-49.130321	-137.717083
2.050000	-50.019744	-141.355843	-0.041717	-36.211396	-0.041717	-36.211396	-50.038977	-140.705949
2.100000	-51.103621	-145.186798	-0.042666	-37.097207	-0.042666	-37.097207	-51.132383	-144.422828
2.150000	-52.416154	-150.226058	-0.043625	-37.983459	-0.043625	-37.983459	-52.461177	-149.313418
2.200000	-54.013112	-157.335836	-0.044597	-38.870166	-0.044597	-38.870166	-54.087966	-156.235045
2.250000	-55.922774	-168.216275	-0.045583	-39.757341	-0.045583	-39.757341	-56.055875	-166.923899
2.300000	-57.969115	174.139088	-0.046582	-40.644998	-0.046582	-40.644998	-58.211132	175.413612
2.350000	-59.283971	147.095407	-0.047597	-41.533151	-0.047597	-41.533151	-59.654245	147.647841
2.400000	-58.484186	116.015412	-0.048628	-42.421814	-0.048628	-42.421814	-58.829447	115.270603
2.450000	-56.082092	93.237992	-0.049677	-43.311000	-0.049677	-43.311000	-56.299881	92.008155
2.500000	-53.503633	79.581596	-0.050744	-44.200724	-0.050744	-44.200724	-53.635520	78.415126
2.550000	-51.207374	71.182348	-0.051831	-45.091024	-0.051831	-45.091024	-51.293096	70.171248
2.600000	-49.230786	65.394590	-0.052940	-45.981892	-0.052940	-45.981892	-49.290633	64.522261
2.650000	-47.512593	61.105685	-0.054071	-46.873341	-0.054071	-46.873341	-47.556833	60.345043
2.700000	-45.996783	57.735099	-0.055225	-47.765386	-0.055225	-47.765386	-46.030968	57.062928
2.750000	-44.640576	54.960735	-0.056405	-48.658042	-0.056405	-48.658042	-44.667920	54.359207
2.800000	-43.412326	52.592784	-0.057611	-49.551322	-0.057611	-49.551322	-43.434805	52.048489
2.850000	-42.288513	50.513251	-0.058844	-50.445241	-0.058844	-50.445241	-42.307404	50.016047
2.900000	-41.251392	48.645343	-0.060107	-51.339813	-0.060107	-51.339813	-41.267556	48.187458
2.950000	-40.287331	46.937106	-0.061401	-52.235053	-0.061401	-52.235053	-40.301371	46.512491
3.000000	-39.385676	45.352209	-0.062728	-53.130974	-0.062728	-53.130974	-39.398026	44.956080
3.050000	-38.537960	43.864518	-0.064089	-54.027590	-0.064089	-54.027590	-38.548941	43.493038
3.100000	-37.737356	42.454766	-0.065486	-54.924916	-0.065486	-54.924916	-37.747210	42.104816
3.150000	-36.978278	41.108447	-0.066921	-55.822965	-0.066921	-55.822965	-36.987193	40.777460
3.200000	-36.256109	39.814433	-0.068396	-56.721750	-0.068396	-56.721750	-36.264231	39.500273
3.250000	-35.566981	38.564044	-0.069912	-57.621286	-0.069912	-57.621286	-35.574428	38.264915
3.300000	-34.907630	37.350408	-0.071473	-58.521585	-0.071473	-58.521585	-34.914495	37.064788
3.350000	-34.275270	36.168015	-0.073080	-59.422661	-0.073080	-59.422661	-34.281631	35.894603
3.400000	-33.667507	35.012393	-0.074735	-60.324526	-0.074735	-60.324526	-33.673427	34.750066
3.450000	-33.082269	33.879871	-0.076441	-61.227193	-0.076441	-61.227193	-33.087801	33.627656
3.500000	-32.517749	32.767408	-0.078199	-62.130674	-0.078199	-62.130674	-32.522938	32.524456
3.550000	-31.972363	31.672461	-0.080013	-63.034981	-0.080013	-63.034981	-31.977246	31.438026
3.600000	-31.444712	30.592886	-0.081884	-63.940126	-0.081884	-63.940126	-31.449321	30.366309
3.650000	-30.933556	29.526860	-0.083816	-64.846121	-0.083816	-64.846121	-30.937920	29.307557
3.700000	-30.437791	28.472824	-0.085810	-65.752975	-0.085810	-65.752975	-30.441933	28.260274
3.750000	-29.956428	27.429435	-0.087870	-66.660701	-0.087870	-66.660701	-29.960369	27.223173
3.800000	-29.488066	26.395895	-0.090001	-67.569347	-0.090001	-67.569347	-29.491824	26.195485
3.850000	-29.032466	25.370744	-0.092204	-68.478884	-0.092204	-68.478884	-29.036057	25.175812
3.900000	-28.588896	24.353107	-0.094481	-69.389322	-0.094481	-69.389322	-28.592335	24.163314
3.950000	-28.156695	23.342215	-0.096834	-70.300671	-0.096834	-70.300671	-28.159993	23.157252
4.000000	-27.735256	22.337384	-0.099268	-71.212939	-0.099268	-71.212939	-27.738425	22.156970
4.050000	-27.324029	21.338006	-0.101785	-72.126132	-0.101785	-72.126132	-27.327079	21.161885
4.100000	-26.922507	20.343540	-0.104388	-73.040260	-0.104388	-73.040260	-26.925447	20.171475
4.150000	-26.530226	19.353499	-0.107081	-73.955329	-0.107081	-73.955329	-26.533065	19.185276
4.200000	-26.146759	18.367448	-0.109866	-74.871345	-0.109866	-74.871345	-26.149502	18.202866
4.250000	-25.771711	17.384992	-0.112747	-75.788313	-0.112747	-75.788313	-25.774366	17.223869
4.300000	-25.404716	16.405778	-0.115727	-76.706240	-0.115727	-76.706240	-25.407289	16.247942
4.350000	-25.045438	15.429482	-0.118810	-77.625130	-0.118810	-77.625130	-25.047934	15.274777
4.400000	-24.693561	14.455813	-0.121999	-78.544987	-0.121999	-78.544987	-24.695985	14.304093
4.450000	-24.348795	13.484507	-0.125297	-79.465814	-0.125297	-79.465814	-24.351152	13.335634
4.500000	-24.010868	12.515320	-0.128708	-80.387613	-0.128708	-80.387613	-24.013161	12.369169
4.550000	-23.679525	11.548033	-0.132236	-81.310388	-0.132236	-81.310388	-23.681759	11.404485
4.600000	-23.355035	10.582318	-0.135872	-82.234054	-0.135872	-82.234054	-23.357212	10.441270
4.650000	-23.036085	9.618275	-0.139645	-83.158792	-0.139645	-83.158792	-23.038209	9.479615
4.700000	-22.723058	8.655577	-0.143545	-84.084507	-0.143545	-84.084507	-22.725133	8.519205
4.750000	-22.415760	7.694070	-0.147575	-85.011198	-0.147575	-85.011198	-22.417788	7.559897
4.800000	-22.114006	6.733615	-0.151741	-85.938864	-0.151741	-85.938864	-22.115989	6.601554
4.850000	-21.817624	5.774086	-0.156045	-86.867501	-0.156045	-86.867501	-21.819565	5.644057
4.900000	-21.526451	4.815367	-0.160491	-87.797108	-0.160491	-87.797108	-21.528351	4.687293
4.950000	-21.240332	3.857353	-0.165083	-88.727679	-0.165083	-88.727679	-21.242194	3.731162
5.000000	-20.959124	2.899948	-0.169824	-89.659210	-0.169824	-89.659210	-20.960950	2.775572
5.050000	-20.682602	1.943076	-0.174723	-90.591718	-0.174723	-90.591718	-20.684393	1.820448
5.100000	-20.410730	0.986645	-0.179778	-91.525173	-0.179778	-91.525173	-20.412488	0.865705
5.150000	-20.143386	0.030586	-0.184995	-92.459568	-0.184995	-92.459568	-20.145112	-0.088724
5.200000	-19.880452	-0.925165	-0.190377	-93.394897	-0.190377	-93.394897	-19.882148	-1.042900
5.250000	-19.621818	-1.880662	-0.195927	-94.331150	-0.195927	-94.331150	-19.623485	-1.996875
5.300000	-19.367378	-2.835955	-0.201649	-95.268316	-0.201649	-95.268316	-19.369018	-2.950696
5.350000	-19.117032	-3.791089	-0.207548	-96.206386	-0.207548	-96.206386	-19.118645	-3.904404
5.400000	-18.870684	-4.746099	-0.213626	-97.145348	-0.213626	-97.145348	-18.872273	-4.858035
5.450000	-18.628245	-5.701020	-0.219887	-98.085189	-0.219887	-98.085189	-18.629809	-5.811619
5.500000	-18.389626	-6.655878	-0.226335	-99.025897	-0.226335	-99.025897	-18.391167	-6.765182
5.550000	-18.154746	-7.610695	-0.232974	-99.967457	-0.232974	-99.967457	-18.156264	-7.718744
5.600000	-17.923525	-8.565491	-0.239807	-100.909854	-0.239807	-100.909854	-17.925021	-8.672322
5.650000	-17.695862	-9.520278	-0.246840	-101.853081	-0.246840	-101.853081	-17.697338	-9.625929
5.700000	-17.471688	-10.475068	-0.254075	-102.797121	-0.254075	-102.797121	-17.473144	-10.579573
5.750000	-17.250961	-11.429866	-0.261516	-103.741946	-0.261516	-103.741946	-17.252397	-11.533259
5.800000	-17.033614	-12.384674	-0.269164	-104.687540	-0.269164	-104.687540	-17.035032	-12.486987
5.850000	-16.819582	-13.339492	-0.277023	-105.633881	-0.277023	-105.633881	-16.820982	-13.440755
5.900000	-16.608805	-14.294316	-0.285097	-106.580950	-0.285097	-106.580950	-16.610188	-14.394559
5.950000	-16.401223	-15.249139	-0.293388	-107.528726	-0.293388	-107.528726	-16.402589	-15.348391
6.000000	-16.196780	-16.203952	-0.301899	-108.477186	-0.301899	-108.477186	-16.198130	-16.302239
6.050000	-15.995420	-17.158741	-0.310634	-109.426308	-0.310634	-109.426308	-15.996754	-17.256091
6.100000	-15.797090	-18.113493	-0.319595	-110.376069	-0.319595	-110.376069	-15.798409	-18.209931
6.150000	-15.601740	-19.068191	-0.328785	-111.326443	-0.328785	-111.326443	-15.603044	-19.163742
6.200000	-15.409320	-20.022817	-0.338207	-112.277407	-0.338207	-112.277407	-15.410610	-20.117503
6.250000	-15.219783	-20.977349	-0.347863	-113.228932	-0.347863	-113.228932	-15.221059	-21.071194
6.300000	-15.033057	-21.931761	-0.357760	-114.181005	-0.357760	-114.181005	-15.034321	-22.024788
6.350000	-14.849127	-22.886033	-0.367897	-115.133584	-0.367897	-115.133584	-14.850377	-22.978263
6.400000	-14.667948	-23.840139	-0.378275	-116.086643	-0.378275	-116.086643	-14.669187	-23.931592
6.450000	-14.489480	-24.794050	-0.388896	-117.040151	-0.388896	-117.040151	-14.490706	-24.884748
6.500000	-14.313681	-25.747741	-0.399762	-117.994079	-0.399762	-117.994079	-14.314896	-25.837701
6.550000	-14.140512	-26.701181	-0.410876	-118.948397	-0.410876	-118.948397	-14.141715	-26.790422
6.600000	-13.969933	-27.654340	-0.422238	-119.903074	-0.422238	-119.903074	-13.971126	-27.742881
6.650000	-13.801909	-28.607188	-0.433850	-120.858079	-0.433850	-120.858079	-13.803091	-28.695047
6.700000	-13.636340	-29.559657	-0.445738	-121.813404	-0.445738	-121.813404	-13.637512	-29.646851
6.750000	-13.473315	-30.511779	-0.457857	-122.768965	-0.457857	-122.768965	-13.474476	-30.598325
6.800000	-13.312738	-31.463494	-0.470231	-123.724754	-0.470231	-123.724754	-13.313890	-31.549406
6.850000	-13.154576	-32.414767	-0.482860	-124.680738	-0.482860	-124.680738	-13.155719	-32.500062
6.900000	-12.998796	-33.365566	-0.495744	-125.636883	-0.495744	-125.636883	-12.999931	-33.450258
6.950000	-12.845367	-34.315857	-0.508885	-126.593153	-0.508885	-126.593153	-12.846492	-34.399961
7.000000	-12.694256	-35.265607	-0.522282	-127.549514	-0.522282	-127.549514	-12.695373	-35.349137
7.050000	-12.545433	-36.214782	-0.535936	-128.505930	-0.535936	-128.505930	-12.546543	-36.297752
7.100000	-12.398869	-37.163348	-0.549848	-129.462366	-0.549848	-129.462366	-12.399971	-37.245772
7.150000	-12.254535	-38.111273	-0.564016	-130.418786	-0.564016	-130.418786	-12.255629	-38.193164
7.200000	-12.112401	-39.058523	-0.578442	-131.375153	-0.578442	-131.375153	-12.113488	-39.139893
7.250000	-11.972441	-40.005065	-0.593123	-132.331432	-0.593123	-132.331432	-11.973521	-40.085926
7.300000	-11.834626	-40.950866	-0.608060	-133.287584	-0.608060	-133.287584	-11.835699	-41.031231
7.350000	-11.698931	-41.895894	-0.623252	-134.243574	-0.623252	-134.243574	-11.699997	-41.975774
7.400000	-11.565329	-42.840117	-0.638698	-135.199365	-0.638698	-135.199365	-11.566389	-42.919524
7.450000	-11.433795	-43.783503	-0.654397	-136.154920	-0.654397	-136.154920	-11.434849	-43.862447
7.500000	-11.304303	-44.726021	-0.670346	-137.110201	-0.670346	-137.110201	-11.305352	-44.804514
7.550000	-11.176837	-45.667601	-0.686556	-138.065157	-0.686556	-138.065157	-11.177880	-45.745653
7.600000	-11.051369	-46.608248	-0.703013	-139.019762	-0.703013	-139.019762	-11.052406	-46.685870
7.650000	-10.927874	-47.547935	-0.719715	-139.973980	-0.719715	-139.973980	-10.928906	-47.625137
7.700000	-10.806331	-48.486632	-0.736662	-140.927774	-0.736662	-140.927774	-10.807358	-48.563423
7.750000	-10.686717	-49.424309	-0.753849	-141.881108	-0.753849	-141.881108	-10.687739	-49.500700
7.800000	-10.569009	-50.360941	-0.771276	-142.833946	-0.771276	-142.833946	-10.570026	-50.436939
7.850000	-10.453186	-51.296497	-0.788938	-143.786251	-0.788938	-143.786251	-10.454199	-51.372114
7.900000	-10.339227	-52.230953	-0.806834	-144.737988	-0.806834	-144.737988	-10.340235	-52.306196
7.950000	-10.227112	-53.164281	-0.824960	-145.689121	-0.824960	-145.689121	-10.228115	-53.239159
8.000000	-10.116819	-54.096456	-0.843313	-146.639617	-0.843313	-146.639617	-10.117819	-54.170978
8.050000	-10.008330	-55.027451	-0.861889	-147.589440	-0.861889	-147.589440	-10.009326	-55.101626
8.100000	-9.901625	-55.957243	-0.880685	-148.538556	-0.880685	-148.538556	-9.902616	-56.031078
8.150000	-9.796685	-56.885806	-0.899696	-149.486933	-0.899696	-149.486933	-9.797673	-56.959310
8.200000	-9.693491	-57.813117	-0.918920	-150.434536	-0.918920	-150.434536	-9.694475	-57.886297
8.250000	-9.592027	-58.739151	-0.938351	-151.381335	-0.938351	-151.381335	-9.593007	-58.812016
8.300000	-9.492273	-59.663886	-0.957986	-152.327296	-0.957986	-152.327296	-9.493250	-59.736444
8.350000	-9.394212	-60.587298	-0.977820	-153.272390	-0.977820	-153.272390	-9.395186	-60.659556
8.400000	-9.297829	-61.509364	-0.997847	-154.216586	-0.997847	-154.216586	-9.298799	-61.581330
8.450000	-9.203106	-62.430063	-1.018064	-155.159853	-1.018064	-155.159853	-9.204073	-62.501745
8.500000	-9.110027	-63.349372	-1.038466	-156.102165	-1.038466	-156.102165	-9.110991	-63.420776
8.550000	-9.018577	-64.267269	-1.059046	-157.043491	-1.059046	-157.043491	-9.019537	-64.338403
8.600000	-8.928739	-65.183731	-1.079800	-157.983806	-1.079800	-157.983806	-8.929697	-65.254602
8.650000	-8.840500	-66.098737	-1.100723	-158.923083	-1.100723	-158.923083	-8.841455	-66.169353
8.700000	-8.753844	-67.012266	-1.121808	-159.861296	-1.121808	-159.861296	-8.754796	-67.082633
8.750000	-8.668758	-67.924294	-1.143050	-160.798422	-1.143050	-160.798422	-8.669707	-67.994420
8.800000	-8.585259	-68.834734	-1.164447	-161.734387	-1.164447	-161.734387	-8.586205	-68.904626
8.850000	-8.503304	-69.743628	-1.185988	-162.669215	-1.185988	-162.669215	-8.504247	-69.813293
8.900000	-8.422878	-70.650955	-1.207668	-163.602887	-1.207668	-163.602887	-8.423818	-70.720399
8.950000	-8.343969	-71.556691	-1.229479	-164.535381	-1.229479	-164.535381	-8.344906	-71.625922
9.000000	-8.266563	-72.460814	-1.251415	-165.466678	-1.251415	-165.466678	-8.267498	-72.529840
9.050000	-8.190649	-73.363302	-1.273471	-166.396760	-1.273471	-166.396760	-8.191581	-73.432128
9.100000	-8.116213	-74.264131	-1.295638	-167.325609	-1.295638	-167.325609	-8.117144	-74.332764
9.150000	-8.043245	-75.163277	-1.317911	-168.253211	-1.317911	-168.253211	-8.044173	-75.231725
9.200000	-7.971733	-76.060717	-1.340282	-169.179549	-1.340282	-169.179549	-7.972658	-76.128986
9.250000	-7.901664	-76.956427	-1.362745	-170.104611	-1.362745	-170.104611	-7.902587	-77.024524
9.300000	-7.833029	-77.850380	-1.385293	-171.028384	-1.385293	-171.028384	-7.833950	-77.918312
9.350000	-7.765816	-78.742553	-1.407917	-171.950857	-1.407917	-171.950857	-7.766734	-78.810326
9.400000	-7.700014	-79.632918	-1.430612	-172.872019	-1.430612	-172.872019	-7.700930	-79.700540
9.450000	-7.635613	-80.521450	-1.453369	-173.791862	-1.453369	-173.791862	-7.636527	-80.588927
9.500000	-7.572602	-81.408121	-1.476181	-174.710379	-1.476181	-174.710379	-7.573515	-81.475460
9.550000	-7.510973	-82.292904	-1.499042	-175.627563	-1.499042	-175.627563	-7.511884	-82.360112
9.600000	-7.450714	-83.175770	-1.521942	-176.543408	-1.521942	-176.543408	-7.451623	-83.242853
9.650000	-7.391816	-84.056689	-1.544876	-177.457912	-1.544876	-177.457912	-7.392724	-84.123655
9.700000	-7.334270	-84.935633	-1.567834	-178.371071	-1.567834	-178.371071	-7.335176	-85.002488
9.750000	-7.278065	-85.812570	-1.590811	-179.282885	-1.590811	-179.282885	-7.278971	-85.879321
9.800000	-7.223194	-86.687470	-1.613796	179.806646	-1.613796	179.806646	-7.224099	-86.754124
9.850000	-7.169646	-87.560300	-1.636784	178.897521	-1.636784	178.897521	-7.170550	-87.626864
9.900000	-7.117413	-88.431028	-1.659766	177.989737	-1.659766	177.989737	-7.118317	-88.497508
9.950000	-7.066486	-89.299620	-1.682734	177.083291	-1.682734	177.083291	-7.067389	-89.366023
10.000000	-7.016856	-90.166043	-1.705680	176.178176	-1.705680	176.178176	-7.017759	-90.232376
