! freq	dB(S11)	phase(S11)	dB(S12)	phase(S12)	
!     	dB(S21)	phase(S21)	dB(S22)	phase(S22)	
!S-par simulation data
#  GHz  S  DB  R 50
0.000000	-0.000000	0.000000	-305.084554	0.000000	-305.084554	0.000000	-0.000000	0.000000
0.050000	-0.010037	-0.939605	-53.565871	88.926421	-53.565871	88.926421	-0.009723	-1.122089
0.100000	-0.010237	-1.873156	-47.546834	87.853220	-47.546834	87.853220	-0.011788	-2.290835
0.150000	-0.010531	-2.807867	-44.027636	86.780779	-44.027636	86.780779	-0.012550	-3.451998
0.200000	-0.010933	-3.742664	-41.532444	85.709425	-41.532444	85.709425	-0.013178	-4.610025
0.250000	-0.011450	-4.677262	-39.598955	84.639592	-39.598955	84.639592	-0.013853	-5.766201
0.300000	-0.012071	-5.611536	-38.020877	83.571455	-38.020877	83.571455	-0.014618	-6.921167
0.350000	-0.012798	-6.545378	-36.688410	82.505354	-36.688410	82.505354	-0.015490	-8.075007
0.400000	-0.013629	-7.478699	-35.535926	81.441544	-35.535926	81.441544	-0.016472	-9.227755
0.450000	-0.014559	-8.411422	-34.521081	80.380247	-34.521081	80.380247	-0.017563	-10.379384
0.500000	-0.015586	-9.343475	-33.614949	79.321650	-33.614949	79.321650	-0.018762	-11.529837
0.550000	-0.016707	-10.274789	-32.796886	78.265908	-32.796886	78.265908	-0.020065	-12.679044
0.600000	-0.017916	-11.205301	-32.051638	77.213143	-32.051638	77.213143	-0.021467	-13.826928
0.650000	-0.019210	-12.134949	-31.367612	76.163441	-31.367612	76.163441	-0.022963	-14.973410
0.700000	-0.020585	-13.063677	-30.735789	75.116862	-30.735789	75.116862	-0.024549	-16.118412
0.750000	-0.022037	-13.991431	-30.149013	74.073435	-30.149013	74.073435	-0.026220	-17.261856
0.800000	-0.023561	-14.918159	-29.601511	73.033166	-29.601511	73.033166	-0.027969	-18.403665
0.850000	-0.025153	-15.843814	-29.088554	71.996040	-29.088554	71.996040	-0.029793	-19.543767
0.900000	-0.026810	-16.768349	-28.606226	70.962023	-28.606226	70.962023	-0.031686	-20.682093
0.950000	-0.028527	-17.691724	-28.151241	69.931068	-28.151241	69.931068	-0.033643	-21.818574
1.000000	-0.030301	-18.613896	-27.720820	68.903117	-27.720820	68.903117	-0.035660	-22.953147
1.050000	-0.032127	-19.534829	-27.312591	67.878105	-27.312591	67.878105	-0.037731	-24.085751
1.100000	-0.034002	-20.454486	-26.924510	66.855963	-26.924510	66.855963	-0.039853	-25.216327
1.150000	-0.035923	-21.372834	-26.554810	65.836621	-26.554810	65.836621	-0.042021	-26.344820
1.200000	-0.037886	-22.289841	-26.201947	64.820008	-26.201947	64.820008	-0.044232	-27.471176
1.250000	-0.039889	-23.205477	-25.864569	63.806058	-25.864569	63.806058	-0.046482	-28.595346
1.300000	-0.041929	-24.119650	-25.541557	62.794819	-25.541557	62.794819	-0.048769	-29.717182
1.350000	-0.044004	-25.032394	-25.231777	61.786121	-25.231777	61.786121	-0.051088	-30.836732
1.400000	-0.046109	-25.943683	-24.934289	60.779916	-24.934289	60.779916	-0.053437	-31.953953
1.450000	-0.048244	-26.853491	-24.648251	59.776162	-24.648251	59.776162	-0.055813	-33.068802
1.500000	-0.050405	-27.761796	-24.372910	58.774828	-24.372910	58.774828	-0.058213	-34.181240
1.550000	-0.052592	-28.668574	-24.107584	57.775888	-24.107584	57.775888	-0.060637	-35.291227
1.600000	-0.054802	-29.573803	-23.851660	56.779326	-23.851660	56.779326	-0.063081	-36.398726
1.650000	-0.057034	-30.477462	-23.604577	55.785131	-23.604577	55.785131	-0.065544	-37.503701
1.700000	-0.059287	-31.379530	-23.365830	54.793301	-23.365830	54.793301	-0.068025	-38.606118
1.750000	-0.061559	-32.279987	-23.134952	53.803839	-23.134952	53.803839	-0.070523	-39.705943
1.800000	-0.063849	-33.178814	-22.911520	52.816756	-22.911520	52.816756	-0.073036	-40.803145
1.850000	-0.066156	-34.075992	-22.695142	51.832066	-22.695142	51.832066	-0.075563	-41.897693
1.900000	-0.068480	-34.971503	-22.485460	50.849788	-22.485460	50.849788	-0.078104	-42.989557
1.950000	-0.070820	-35.865327	-22.282140	49.869946	-22.282140	49.869946	-0.080659	-44.078709
2.000000	-0.073175	-36.757448	-22.084875	48.892567	-22.084875	48.892567	-0.083225	-45.165122
2.050000	-0.075545	-37.647849	-21.893380	47.917682	-21.893380	47.917682	-0.085804	-46.248769
2.100000	-0.077928	-38.536513	-21.707388	46.945320	-21.707388	46.945320	-0.088395	-47.329627
2.150000	-0.080326	-39.423424	-21.526653	45.975517	-21.526653	45.975517	-0.090997	-48.407671
2.200000	-0.082737	-40.308565	-21.350943	45.008308	-21.350943	45.008308	-0.093610	-49.482879
2.250000	-0.085161	-41.191921	-21.180041	44.043727	-21.180041	44.043727	-0.096235	-50.555229
2.300000	-0.087599	-42.073478	-21.013745	43.081812	-21.013745	43.081812	-0.098871	-51.624701
2.350000	-0.090049	-42.953220	-20.851864	42.122597	-20.851864	42.122597	-0.101518	-52.691276
2.400000	-0.092512	-43.831135	-20.694218	41.166119	-20.694218	41.166119	-0.104176	-53.754936
2.450000	-0.094988	-44.707206	-20.540637	40.212412	-20.540637	40.212412	-0.106846	-54.815665
2.500000	-0.097477	-45.581423	-20.390963	39.261512	-20.390963	39.261512	-0.109528	-55.873447
2.550000	-0.099980	-46.453690	-20.245096	38.313575	-20.245096	38.313575	-0.112221	-56.928139
2.600000	-0.102495	-47.324075	-20.102839	37.368512	-20.102839	37.368512	-0.114927	-57.979855
2.650000	-0.105023	-48.192567	-19.964057	36.426353	-19.964057	36.426353	-0.117644	-59.028584
2.700000	-0.107564	-49.059156	-19.828620	35.487126	-19.828620	35.487126	-0.120374	-60.074317
2.750000	-0.110119	-49.923829	-19.696405	34.550859	-19.696405	34.550859	-0.123117	-61.117043
2.800000	-0.112687	-50.786577	-19.567297	33.617576	-19.567297	33.617576	-0.125873	-62.156756
2.850000	-0.115269	-51.647391	-19.441184	32.687301	-19.441184	32.687301	-0.128643	-63.193448
2.900000	-0.117864	-52.506262	-19.317959	31.760055	-19.317959	31.760055	-0.131426	-64.227114
2.950000	-0.120473	-53.363181	-19.197522	30.835859	-19.197522	30.835859	-0.134223	-65.257750
3.000000	-0.123097	-54.218141	-19.079776	29.914729	-19.079776	29.914729	-0.137034	-66.285354
3.050000	-0.125734	-55.071134	-18.964629	28.996682	-18.964629	28.996682	-0.139860	-67.309924
3.100000	-0.128387	-55.922154	-18.851991	28.081730	-18.851991	28.081730	-0.142701	-68.331459
3.150000	-0.131054	-56.771194	-18.741778	27.169887	-18.741778	27.169887	-0.145558	-69.349962
3.200000	-0.133736	-57.618250	-18.633908	26.261162	-18.633908	26.261162	-0.148430	-70.365434
3.250000	-0.136434	-58.463317	-18.528303	25.355564	-18.528303	25.355564	-0.151319	-71.377879
3.300000	-0.139147	-59.306391	-18.424888	24.453098	-18.424888	24.453098	-0.154224	-72.387302
3.350000	-0.141876	-60.147468	-18.323591	23.553769	-18.323591	23.553769	-0.157146	-73.393708
3.400000	-0.144622	-60.986545	-18.224342	22.657580	-18.224342	22.657580	-0.160085	-74.397106
3.450000	-0.147384	-61.823620	-18.127074	21.764531	-18.127074	21.764531	-0.163043	-75.397503
3.500000	-0.150162	-62.658692	-18.031723	20.874623	-18.031723	20.874623	-0.166018	-76.394910
3.550000	-0.152958	-63.491759	-17.938227	19.987851	-17.938227	19.987851	-0.169012	-77.389338
3.600000	-0.155772	-64.322822	-17.846526	19.104213	-17.846526	19.104213	-0.172025	-78.380798
3.650000	-0.158603	-65.151881	-17.756562	18.223703	-17.756562	18.223703	-0.175057	-79.369304
3.700000	-0.161452	-65.978937	-17.668278	17.346313	-17.668278	17.346313	-0.178109	-80.354871
3.750000	-0.164319	-66.803991	-17.581623	16.472034	-17.581623	16.472034	-0.181182	-81.337514
3.800000	-0.167207	-67.626959	-17.496572	15.600991	-17.496572	15.600991	-0.184276	-82.317124
3.850000	-0.170113	-68.447932	-17.413045	14.733037	-17.413045	14.733037	-0.187391	-83.293847
3.900000	-0.173039	-69.266911	-17.330992	13.868158	-17.330992	13.868158	-0.190528	-84.267701
3.950000	-0.175986	-70.083903	-17.250366	13.006340	-17.250366	13.006340	-0.193688	-85.238708
4.000000	-0.178952	-70.898912	-17.171121	12.147567	-17.171121	12.147567	-0.196869	-86.206888
4.050000	-0.181940	-71.711943	-17.093212	11.291822	-17.093212	11.291822	-0.200074	-87.172263
4.100000	-0.184949	-72.523002	-17.016598	10.439087	-17.016598	10.439087	-0.203303	-88.134858
4.150000	-0.187979	-73.332097	-16.941236	9.589342	-16.941236	9.589342	-0.206556	-89.094695
4.200000	-0.191032	-74.139234	-16.867086	8.742566	-16.867086	8.742566	-0.209833	-90.051802
4.250000	-0.194108	-74.944421	-16.794108	7.898739	-16.794108	7.898739	-0.213135	-91.006204
4.300000	-0.197207	-75.747668	-16.722264	7.057837	-16.722264	7.057837	-0.216464	-91.957928
4.350000	-0.200330	-76.548982	-16.651519	6.219836	-16.651519	6.219836	-0.219818	-92.907003
4.400000	-0.203477	-77.348374	-16.581834	5.384712	-16.581834	5.384712	-0.223199	-93.853457
4.450000	-0.206649	-78.145855	-16.513177	4.552439	-16.513177	4.552439	-0.226608	-94.797322
4.500000	-0.209846	-78.941433	-16.445512	3.722990	-16.445512	3.722990	-0.230045	-95.738628
4.550000	-0.213069	-79.735122	-16.378806	2.896337	-16.378806	2.896337	-0.233510	-96.677406
4.600000	-0.216318	-80.526933	-16.313028	2.072452	-16.313028	2.072452	-0.237004	-97.613690
4.650000	-0.219595	-81.316879	-16.248146	1.251305	-16.248146	1.251305	-0.240528	-98.547513
4.700000	-0.222900	-82.104971	-16.184129	0.432867	-16.184129	0.432867	-0.244083	-99.478909
4.750000	-0.226233	-82.891225	-16.120949	-0.382895	-16.120949	-0.382895	-0.247668	-100.407914
4.800000	-0.229595	-83.675654	-16.058575	-1.196012	-16.058575	-1.196012	-0.251286	-101.334564
4.850000	-0.232986	-84.458272	-15.996979	-2.006516	-15.996979	-2.006516	-0.254935	-102.258895
4.900000	-0.236408	-85.239094	-15.936135	-2.814443	-15.936135	-2.814443	-0.258618	-103.180944
4.950000	-0.239862	-86.018137	-15.876016	-3.619824	-15.876016	-3.619824	-0.262334	-104.100751
5.000000	-0.243347	-86.795415	-15.816594	-4.422697	-15.816594	-4.422697	-0.266085	-105.018353
5.050000	-0.246866	-87.570871	-15.757856	-5.222991	-15.757856	-5.222991	-0.269873	-105.933698
5.100000	-0.250418	-88.344598	-15.699764	-6.020851	-15.699764	-6.020851	-0.273697	-106.846924
5.150000	-0.254005	-89.116614	-15.642294	-6.816315	-15.642294	-6.816315	-0.277557	-107.758070
5.200000	-0.257627	-89.886936	-15.585423	-7.609421	-15.585423	-7.609421	-0.281455	-108.667178
5.250000	-0.261285	-90.655583	-15.529126	-8.400208	-15.529126	-8.400208	-0.285391	-109.574291
5.300000	-0.264979	-91.422573	-15.473381	-9.188716	-15.473381	-9.188716	-0.289367	-110.479453
5.350000	-0.268711	-92.187926	-15.418166	-9.974983	-15.418166	-9.974983	-0.293382	-111.382706
5.400000	-0.272481	-92.951662	-15.363460	-10.759053	-15.363460	-10.759053	-0.297438	-112.284095
5.450000	-0.276291	-93.713800	-15.309241	-11.540964	-15.309241	-11.540964	-0.301536	-113.183664
5.500000	-0.280141	-94.474362	-15.255488	-12.320761	-15.255488	-12.320761	-0.305676	-114.081461
5.550000	-0.284032	-95.233367	-15.202181	-13.098486	-15.202181	-13.098486	-0.309859	-114.977529
5.600000	-0.287965	-95.990838	-15.149301	-13.874183	-15.149301	-13.874183	-0.314087	-115.871917
5.650000	-0.291942	-96.746795	-15.096827	-14.647895	-15.096827	-14.647895	-0.318360	-116.764670
5.700000	-0.295962	-97.501262	-15.044741	-15.419668	-15.044741	-15.419668	-0.322679	-117.655838
5.750000	-0.300028	-98.254259	-14.993024	-16.189548	-14.993024	-16.189548	-0.327045	-118.545468
5.800000	-0.304140	-99.005811	-14.941658	-16.957580	-14.941658	-16.957580	-0.331459	-119.433608
5.850000	-0.308299	-99.755940	-14.890625	-17.723813	-14.890625	-17.723813	-0.335922	-120.320309
5.900000	-0.312506	-100.504670	-14.839907	-18.488292	-14.839907	-18.488292	-0.340435	-121.205620
5.950000	-0.316763	-101.252024	-14.789488	-19.251068	-14.789488	-19.251068	-0.344998	-122.089592
6.000000	-0.321071	-101.998027	-14.739350	-20.012190	-14.739350	-20.012190	-0.349614	-122.972274
6.050000	-0.325430	-102.742703	-14.689478	-20.771706	-14.689478	-20.771706	-0.354283	-123.853719
6.100000	-0.329842	-103.486076	-14.639854	-21.529669	-14.639854	-21.529669	-0.359005	-124.733978
6.150000	-0.334308	-104.228173	-14.590463	-22.286130	-14.590463	-22.286130	-0.363783	-125.613104
6.200000	-0.338829	-104.969019	-14.541289	-23.041140	-14.541289	-23.041140	-0.368617	-126.491148
6.250000	-0.343406	-105.708638	-14.492318	-23.794753	-14.492318	-23.794753	-0.373508	-127.368165
6.300000	-0.348044	-106.447007	-14.443530	-24.546967	-14.443530	-24.546967	-0.378460	-128.244168
6.350000	-0.352741	-107.184206	-14.394913	-25.297898	-14.394913	-25.297898	-0.383472	-129.119256
6.400000	-0.357498	-107.920259	-14.346454	-26.047600	-14.346454	-26.047600	-0.388544	-129.993484
6.450000	-0.362316	-108.655196	-14.298138	-26.796132	-14.298138	-26.796132	-0.393678	-130.866906
6.500000	-0.367198	-109.389043	-14.249951	-27.543550	-14.249951	-27.543550	-0.398875	-131.739577
6.550000	-0.372144	-110.121827	-14.201880	-28.289912	-14.201880	-28.289912	-0.404137	-132.611555
6.600000	-0.377155	-110.853577	-14.153913	-29.035278	-14.153913	-29.035278	-0.409464	-133.482895
6.650000	-0.382234	-111.584321	-14.106035	-29.779708	-14.106035	-29.779708	-0.414857	-134.353653
6.700000	-0.387380	-112.314086	-14.058234	-30.523263	-14.058234	-30.523263	-0.420319	-135.223888
6.750000	-0.392597	-113.042902	-14.010499	-31.266005	-14.010499	-31.266005	-0.425849	-136.093656
6.800000	-0.397885	-113.770797	-13.962816	-32.007997	-13.962816	-32.007997	-0.431450	-136.963015
6.850000	-0.403246	-114.497801	-13.915175	-32.749304	-13.915175	-32.749304	-0.437123	-137.832025
6.900000	-0.408680	-115.223942	-13.867562	-33.489989	-13.867562	-33.489989	-0.442869	-138.700743
6.950000	-0.414191	-115.949252	-13.819969	-34.230121	-13.819969	-34.230121	-0.448689	-139.569229
7.000000	-0.419778	-116.673758	-13.772382	-34.969765	-13.772382	-34.969765	-0.454585	-140.437543
7.050000	-0.425445	-117.397493	-13.724792	-35.708990	-13.724792	-35.708990	-0.460558	-141.305744
7.100000	-0.431191	-118.120485	-13.677187	-36.447866	-13.677187	-36.447866	-0.466609	-142.173894
7.150000	-0.437020	-118.842766	-13.629559	-37.186462	-13.629559	-37.186462	-0.472740	-143.042052
7.200000	-0.442932	-119.564367	-13.581897	-37.924851	-13.581897	-37.924851	-0.478952	-143.910281
7.250000	-0.448929	-120.285319	-13.534192	-38.663104	-13.534192	-38.663104	-0.485246	-144.778642
7.300000	-0.455012	-121.005652	-13.486433	-39.401297	-13.486433	-39.401297	-0.491624	-145.647197
7.350000	-0.461184	-121.725399	-13.438614	-40.139503	-13.438614	-40.139503	-0.498088	-146.516008
7.400000	-0.467446	-122.444592	-13.390724	-40.877798	-13.390724	-40.877798	-0.504639	-147.385139
7.450000	-0.473799	-123.163262	-13.342755	-41.616260	-13.342755	-41.616260	-0.511277	-148.254653
7.500000	-0.480246	-123.881442	-13.294701	-42.354966	-13.294701	-42.354966	-0.518006	-149.124613
7.550000	-0.486792	-124.599147	-13.246536	-43.094013	-13.246536	-43.094013	-0.524829	-149.995109
7.600000	-0.493435	-125.316429	-13.198270	-43.833472	-13.198270	-43.833472	-0.531745	-150.866186
7.650000	-0.500177	-126.033322	-13.149895	-44.573421	-13.149895	-44.573421	-0.538756	-151.737910
7.700000	-0.507020	-126.749860	-13.101405	-45.313945	-13.101405	-45.313945	-0.545862	-152.610345
7.750000	-0.513964	-127.466076	-13.052794	-46.055125	-13.052794	-46.055125	-0.553066	-153.483558
7.800000	-0.521013	-128.182004	-13.004057	-46.797045	-13.004057	-46.797045	-0.560368	-154.357615
7.850000	-0.528168	-128.897677	-12.955189	-47.539788	-12.955189	-47.539788	-0.567771	-155.232582
7.900000	-0.535430	-129.613130	-12.906184	-48.283440	-12.906184	-48.283440	-0.575276	-156.108528
7.950000	-0.542802	-130.328398	-12.857039	-49.028084	-12.857039	-49.028084	-0.582884	-156.985518
8.000000	-0.550286	-131.043514	-12.807750	-49.773807	-12.807750	-49.773807	-0.590598	-157.863622
8.050000	-0.557884	-131.758515	-12.758313	-50.520692	-12.758313	-50.520692	-0.598418	-158.742907
8.100000	-0.565596	-132.473434	-12.708726	-51.268825	-12.708726	-51.268825	-0.606347	-159.623443
8.150000	-0.573426	-133.188309	-12.658987	-52.018291	-12.658987	-52.018291	-0.614385	-160.505298
8.200000	-0.581376	-133.903173	-12.609094	-52.769174	-12.609094	-52.769174	-0.622535	-161.388543
8.250000	-0.589446	-134.618063	-12.559046	-53.521555	-12.559046	-53.521555	-0.630799	-162.273248
8.300000	-0.597640	-135.333016	-12.508842	-54.275519	-12.508842	-54.275519	-0.639176	-163.159482
8.350000	-0.605960	-136.048067	-12.458482	-55.031144	-12.458482	-55.031144	-0.647671	-164.047318
8.400000	-0.614406	-136.763254	-12.407966	-55.788511	-12.407966	-55.788511	-0.656283	-164.936826
8.450000	-0.622982	-137.478613	-12.357295	-56.547695	-12.357295	-56.547695	-0.665015	-165.828078
8.500000	-0.631689	-138.194182	-12.306471	-57.308771	-12.306471	-57.308771	-0.673868	-166.721147
8.550000	-0.640530	-138.909997	-12.255495	-58.071811	-12.255495	-58.071811	-0.682845	-167.616106
8.600000	-0.649507	-139.626097	-12.204370	-58.836883	-12.204370	-58.836883	-0.691945	-168.513026
8.650000	-0.658621	-140.342520	-12.153098	-59.604051	-12.153098	-59.604051	-0.701172	-169.411983
8.700000	-0.667874	-141.059303	-12.101682	-60.373376	-12.101682	-60.373376	-0.710527	-170.313049
8.750000	-0.677270	-141.776486	-12.050126	-61.144915	-12.050126	-61.144915	-0.720011	-171.216299
8.800000	-0.686816	-142.494129	-11.998414	-61.918818	-11.998414	-61.918818	-0.729632	-172.121911
8.850000	-0.696508	-143.212252	-11.946568	-62.695035	-11.946568	-62.695035	-0.739385	-173.029863
8.900000	-0.706349	-143.930897	-11.894593	-63.473606	-11.894593	-63.473606	-0.749273	-173.940233
8.950000	-0.716341	-144.650101	-11.842492	-64.254563	-11.842492	-64.254563	-0.759296	-174.853095
9.000000	-0.726485	-145.369906	-11.790269	-65.037935	-11.790269	-65.037935	-0.769458	-175.768527
9.050000	-0.736785	-146.090352	-11.737926	-65.823742	-11.737926	-65.823742	-0.779758	-176.686605
9.100000	-0.747243	-146.811480	-11.685466	-66.612000	-11.685466	-66.612000	-0.790199	-177.607406
9.150000	-0.757860	-147.533330	-11.632890	-67.402715	-11.632890	-67.402715	-0.800783	-178.531010
9.200000	-0.768639	-148.255945	-11.580201	-68.195891	-11.580201	-68.195891	-0.811510	-179.457492
9.250000	-0.779582	-148.979365	-11.527398	-68.991524	-11.527398	-68.991524	-0.822383	179.613067
9.300000	-0.790692	-149.703633	-11.474479	-69.789606	-11.474479	-69.789606	-0.833402	178.680590
9.350000	-0.801971	-150.428792	-11.421443	-70.590121	-11.421443	-70.590121	-0.844569	177.744998
9.400000	-0.813421	-151.154884	-11.368285	-71.393055	-11.368285	-71.393055	-0.855887	176.806210
9.450000	-0.825045	-151.881952	-11.314999	-72.198387	-11.314999	-72.198387	-0.867355	175.864146
9.500000	-0.836844	-152.610040	-11.261578	-73.006096	-11.261578	-73.006096	-0.878976	174.918728
9.550000	-0.848822	-153.339192	-11.208011	-73.816162	-11.208011	-73.816162	-0.890750	173.969874
9.600000	-0.860980	-154.069452	-11.154288	-74.628566	-11.154288	-74.628566	-0.902680	173.017504
9.650000	-0.873321	-154.800864	-11.100394	-75.443295	-11.100394	-75.443295	-0.914766	172.061536
9.700000	-0.885847	-155.533475	-11.046312	-76.260339	-11.046312	-76.260339	-0.927009	171.101890
9.750000	-0.898561	-156.267329	-10.992024	-77.079698	-10.992024	-77.079698	-0.939411	170.138483
9.800000	-0.911465	-157.002473	-10.937510	-77.901383	-10.937510	-77.901383	-0.951973	169.171235
9.850000	-0.924562	-157.738953	-10.882745	-78.725417	-10.882745	-78.725417	-0.964696	168.200064
9.900000	-0.937853	-158.476815	-10.827705	-79.551839	-10.827705	-79.551839	-0.977581	167.224887
9.950000	-0.951341	-159.216107	-10.772363	-80.380705	-10.772363	-80.380705	-0.990629	166.245621
10.000000	-0.965029	-159.956877	-10.716690	-81.212091	-10.716690	-81.212091	-1.003840	165.262186
