! freq	dB(S11)	phase(S11)	dB(S12)	phase(S12)	
!     	dB(S21)	phase(S21)	dB(S22)	phase(S22)	
!S-par simulation data
#  GHz  S  DB  R 50
0.000000	-0.000000	0.000000	-359.807995	0.000000	-359.807995	0.000000	-0.000000	0.000000
0.050000	-0.000104	-0.844659	-66.648392	89.021231	-66.648392	89.021231	-0.000104	-0.845004
0.100000	-0.000412	-1.689069	-60.637869	88.060185	-60.637869	88.060185	-0.000412	-1.689759
0.150000	-0.000913	-2.533000	-57.130507	87.127759	-57.130507	87.127759	-0.000913	-2.534035
0.200000	-0.001587	-3.376257	-54.648298	86.226013	-54.648298	86.226013	-0.001586	-3.377638
0.250000	-0.002421	-4.218620	-52.727615	85.353028	-52.727615	85.353028	-0.002421	-4.220347
0.300000	-0.003379	-5.060045	-51.160712	84.500120	-51.160712	84.500120	-0.003379	-5.062117
0.350000	-0.004442	-5.900409	-49.837673	83.662517	-49.837673	83.662517	-0.004442	-5.902827
0.400000	-0.005588	-6.739662	-48.692826	82.835251	-48.692826	82.835251	-0.005588	-6.742425
0.450000	-0.006794	-7.577778	-47.683966	82.014641	-47.683966	82.014641	-0.006794	-7.580886
0.500000	-0.008042	-8.414757	-46.782381	81.198148	-46.782381	81.198148	-0.008042	-8.418210
0.550000	-0.009316	-9.250615	-45.967661	80.384105	-45.967661	80.384105	-0.009317	-9.254413
0.600000	-0.010604	-10.085376	-45.224773	79.571471	-45.224773	79.571471	-0.010605	-10.089518
0.650000	-0.011894	-10.919073	-44.542321	78.759627	-44.542321	78.759627	-0.011896	-10.923557
0.700000	-0.013181	-11.751734	-43.911458	77.948237	-43.911458	77.948237	-0.013182	-11.756561
0.750000	-0.014457	-12.583391	-43.325172	77.137145	-43.325172	77.137145	-0.014459	-12.588560
0.800000	-0.015721	-13.414070	-42.777814	76.326309	-42.777814	76.326309	-0.015723	-13.419579
0.850000	-0.016969	-14.243790	-42.264759	75.515763	-42.264759	75.515763	-0.016972	-14.249639
0.900000	-0.018200	-15.072568	-41.782175	74.705583	-41.782175	74.705583	-0.018204	-15.078756
0.950000	-0.019415	-15.900416	-41.326852	73.895871	-41.326852	73.895871	-0.019419	-15.906941
1.000000	-0.020614	-16.727336	-40.896070	73.086744	-40.896070	73.086744	-0.020619	-16.734199
1.050000	-0.021798	-17.553332	-40.487504	72.278326	-40.487504	72.278326	-0.021802	-17.560531
1.100000	-0.022967	-18.378398	-40.099156	71.470742	-40.099156	71.470742	-0.022972	-18.385933
1.150000	-0.024123	-19.202527	-39.729289	70.664118	-39.729289	70.664118	-0.024128	-19.210397
1.200000	-0.025267	-20.025710	-39.376388	69.858578	-39.376388	69.858578	-0.025273	-20.033913
1.250000	-0.026401	-20.847932	-39.039121	69.054242	-39.039121	69.054242	-0.026407	-20.856468
1.300000	-0.027525	-21.669135	-38.716396	68.251289	-38.716396	68.251289	-0.027531	-21.678003
1.350000	-0.028641	-22.489342	-38.407086	67.449780	-38.407086	67.449780	-0.028647	-22.498542
1.400000	-0.029750	-23.308536	-38.110258	66.649823	-38.110258	66.649823	-0.029756	-23.318066
1.450000	-0.030853	-24.126696	-37.825079	65.851523	-37.825079	65.851523	-0.030860	-24.136556
1.500000	-0.031951	-24.943802	-37.550798	65.054981	-37.550798	65.054981	-0.031958	-24.953990
1.550000	-0.033045	-25.759831	-37.286737	64.260296	-37.286737	64.260296	-0.033052	-25.770347
1.600000	-0.034136	-26.574762	-37.032283	63.467563	-37.032283	63.467563	-0.034143	-26.585604
1.650000	-0.035224	-27.388572	-36.786876	62.676874	-36.786876	62.676874	-0.035232	-27.399741
1.700000	-0.036310	-28.200833	-36.550650	61.889103	-36.550650	61.889103	-0.036318	-28.212326
1.750000	-0.037395	-29.012490	-36.321605	61.102475	-36.321605	61.102475	-0.037403	-29.024307
1.800000	-0.038480	-29.822691	-36.100619	60.318697	-36.100619	60.318697	-0.038488	-29.834831
1.850000	-0.039563	-30.631853	-35.886634	59.536953	-35.886634	59.536953	-0.039572	-30.644314
1.900000	-0.040647	-31.439719	-35.679634	58.757827	-35.679634	58.757827	-0.040656	-31.452501
1.950000	-0.041732	-32.246290	-35.479252	57.981319	-35.479252	57.981319	-0.041740	-32.259392
2.000000	-0.042817	-33.051744	-35.284901	57.207132	-35.284901	57.207132	-0.042826	-33.065165
2.050000	-0.043904	-33.855633	-35.096875	56.436196	-35.096875	56.436196	-0.043913	-33.869371
2.100000	-0.044991	-34.658833	-34.913723	55.666720	-34.913723	55.666720	-0.045000	-34.672888
2.150000	-0.046081	-35.460244	-34.736612	54.901046	-34.736612	54.901046	-0.046090	-35.474614
2.200000	-0.047173	-36.260301	-34.564709	54.138290	-34.564709	54.138290	-0.047182	-36.274985
2.250000	-0.048267	-37.058986	-34.397796	53.378520	-34.397796	53.378520	-0.048277	-37.073983
2.300000	-0.049364	-37.856279	-34.235669	52.621804	-34.235669	52.621804	-0.049374	-37.871588
2.350000	-0.050464	-38.652162	-34.078135	51.868209	-34.078135	51.868209	-0.050474	-38.667781
2.400000	-0.051567	-39.446618	-33.925015	51.117800	-33.925015	51.117800	-0.051577	-39.462546
2.450000	-0.052673	-40.239628	-33.776137	50.370642	-33.776137	50.370642	-0.052684	-40.255865
2.500000	-0.053784	-41.031178	-33.631342	49.626796	-33.631342	49.626796	-0.053794	-41.047721
2.550000	-0.054898	-41.821184	-33.490546	48.886474	-33.490546	48.886474	-0.054909	-41.838033
2.600000	-0.056017	-42.609695	-33.353536	48.149593	-33.353536	48.149593	-0.056028	-42.626848
2.650000	-0.057141	-43.396695	-33.220176	47.416211	-33.220176	47.416211	-0.057152	-43.414151
2.700000	-0.058270	-44.182170	-33.090337	46.686387	-33.090337	46.686387	-0.058281	-44.199928
2.750000	-0.059403	-44.966105	-32.963896	45.960177	-32.963896	45.960177	-0.059415	-44.984163
2.800000	-0.060543	-45.748486	-32.840736	45.237637	-32.840736	45.237637	-0.060555	-45.766843
2.850000	-0.061688	-46.529300	-32.720748	44.518821	-32.720748	44.518821	-0.061700	-46.547955
2.900000	-0.062839	-47.308534	-32.603823	43.803784	-32.603823	43.803784	-0.062852	-47.327486
2.950000	-0.063997	-48.086176	-32.489862	43.092578	-32.489862	43.092578	-0.064010	-48.105422
3.000000	-0.065162	-48.862213	-32.378768	42.385254	-32.378768	42.385254	-0.065174	-48.881753
3.050000	-0.066334	-49.636634	-32.270448	41.681862	-32.270448	41.681862	-0.066347	-49.656466
3.100000	-0.067513	-50.409427	-32.164812	40.982451	-32.164812	40.982451	-0.067526	-50.429551
3.150000	-0.068700	-51.180584	-32.061777	40.287071	-32.061777	40.287071	-0.068714	-51.200997
3.200000	-0.069896	-51.950092	-31.961260	39.595767	-31.961260	39.595767	-0.069909	-51.970794
3.250000	-0.071100	-52.717943	-31.863182	38.908585	-31.863182	38.908585	-0.071113	-52.738932
3.300000	-0.072312	-53.484127	-31.767468	38.225571	-31.767468	38.225571	-0.072326	-53.505403
3.350000	-0.073536	-54.248343	-31.674259	37.547514	-31.674259	37.547514	-0.073550	-54.269903
3.400000	-0.074770	-55.010802	-31.583320	36.873897	-31.583320	36.873897	-0.074785	-55.032644
3.450000	-0.076010	-55.772375	-31.493947	36.202537	-31.493947	36.202537	-0.076024	-55.794500
3.500000	-0.077265	-56.531293	-31.407340	35.537949	-31.407340	35.537949	-0.077280	-56.553698
3.550000	-0.078524	-57.289616	-31.321989	34.874894	-31.321989	34.874894	-0.078540	-57.312301
3.600000	-0.079803	-58.044964	-31.239452	34.219505	-31.239452	34.219505	-0.079818	-58.067927
3.650000	-0.081084	-58.800012	-31.157885	33.564896	-31.157885	33.564896	-0.081100	-58.823253
3.700000	-0.082388	-59.551766	-31.079172	32.918866	-31.079172	32.918866	-0.082403	-59.575281
3.750000	-0.083691	-60.303519	-31.001166	32.272836	-31.001166	32.272836	-0.083707	-60.327310
3.800000	-0.085022	-61.051657	-30.926043	31.636313	-30.926043	31.636313	-0.085038	-61.075720
3.850000	-0.086352	-61.799795	-30.851565	30.999790	-30.851565	30.999790	-0.086369	-61.824131
3.900000	-0.087709	-62.544604	-30.779636	30.372108	-30.779636	30.372108	-0.087725	-62.569210
3.950000	-0.089067	-63.289110	-30.708471	29.745230	-30.708471	29.745230	-0.089085	-63.313986
4.000000	-0.090451	-64.030580	-30.639543	29.126494	-30.639543	29.126494	-0.090469	-64.055724
4.050000	-0.091841	-64.771442	-30.571487	28.509386	-30.571487	28.509386	-0.091858	-64.796854
4.100000	-0.093254	-65.509565	-30.505376	27.899693	-30.505376	27.899693	-0.093271	-65.535242
4.150000	-0.094675	-66.246775	-30.440234	27.292471	-30.440234	27.292471	-0.094693	-66.272717
4.200000	-0.096118	-66.981547	-30.376767	26.691908	-30.376767	26.691908	-0.096137	-67.007753
4.250000	-0.097573	-67.715101	-30.314351	26.094673	-30.314351	26.094673	-0.097592	-67.741570
4.300000	-0.099049	-68.446521	-30.253361	25.503317	-30.253361	25.503317	-0.099068	-68.473251
4.350000	-0.100540	-69.176418	-30.193492	24.916159	-30.193492	24.916159	-0.100559	-69.203409
4.400000	-0.102049	-69.904487	-30.134820	24.334077	-30.134820	24.334077	-0.102068	-69.931738
4.450000	-0.103577	-70.630731	-30.077324	23.757072	-30.077324	23.757072	-0.103597	-70.658240
4.500000	-0.105121	-71.355455	-30.020817	23.184322	-30.020817	23.184322	-0.105141	-71.383221
4.550000	-0.106688	-72.078052	-29.965526	22.617531	-29.965526	22.617531	-0.106709	-72.106075
4.600000	-0.108269	-72.799438	-29.911037	22.054159	-29.911037	22.054159	-0.108290	-72.827716
4.650000	-0.109878	-73.518401	-29.857789	21.497628	-29.857789	21.497628	-0.109899	-73.546933
4.700000	-0.111497	-74.236458	-29.805177	20.943669	-29.805177	20.943669	-0.111518	-74.265244
4.750000	-0.113148	-74.951801	-29.753812	20.397429	-29.753812	20.397429	-0.113170	-74.980839
4.800000	-0.114807	-75.666543	-29.702939	19.852905	-29.702939	19.852905	-0.114829	-75.695834
4.850000	-0.116503	-76.378284	-29.653305	19.316969	-29.653305	19.316969	-0.116525	-76.407825
4.900000	-0.118203	-77.089727	-29.604038	18.781890	-29.604038	18.781890	-0.118225	-77.119518
4.950000	-0.119945	-77.797888	-29.555983	18.256253	-29.555983	18.256253	-0.119968	-77.827928
5.000000	-0.121688	-78.506050	-29.508193	17.730616	-29.508193	17.730616	-0.121711	-78.536338
5.050000	-0.123478	-79.210657	-29.461572	17.215254	-29.461572	17.215254	-0.123502	-79.241193
5.100000	-0.125269	-79.915264	-29.415199	16.699891	-29.415199	16.699891	-0.125294	-79.946047
5.150000	-0.127106	-80.616639	-29.369800	16.193907	-29.369800	16.193907	-0.127131	-80.647668
5.200000	-0.128947	-81.317721	-29.324703	15.688775	-29.324703	15.688775	-0.128972	-81.348995
5.250000	-0.130831	-82.015891	-29.280405	15.192114	-29.280405	15.192114	-0.130857	-82.047409
5.300000	-0.132724	-82.713479	-29.236444	14.697146	-29.236444	14.697146	-0.132750	-82.745241
5.350000	-0.134657	-83.408474	-29.193127	14.209733	-29.193127	14.209733	-0.134683	-83.440479
5.400000	-0.136604	-84.102603	-29.150166	13.724838	-29.150166	13.724838	-0.136631	-84.134851
5.450000	-0.138588	-84.794453	-29.107715	13.246583	-29.107715	13.246583	-0.138614	-84.826942
5.500000	-0.140590	-85.485162	-29.065619	12.771646	-29.065619	12.771646	-0.140617	-85.517893
5.550000	-0.142625	-86.173901	-29.023920	12.302436	-29.023920	12.302436	-0.142653	-86.206872
5.600000	-0.144685	-86.861231	-28.982558	11.837317	-28.982558	11.837317	-0.144713	-86.894443
5.650000	-0.146773	-87.546895	-28.941500	11.377020	-28.941500	11.377020	-0.146802	-87.580346
5.700000	-0.148892	-88.230891	-28.900742	10.921547	-28.900742	10.921547	-0.148921	-88.264582
5.750000	-0.151036	-88.913517	-28.860215	10.470011	-28.860215	10.470011	-0.151065	-88.947447
5.800000	-0.153215	-89.594225	-28.819935	10.023985	-28.819935	10.023985	-0.153245	-89.628393
5.850000	-0.155415	-90.273854	-28.779834	9.581032	-28.779834	9.581032	-0.155445	-90.308261
5.900000	-0.157656	-90.951325	-28.739906	9.144223	-28.739906	9.144223	-0.157687	-90.985969
5.950000	-0.159914	-91.628000	-28.700127	8.709653	-28.700127	8.709653	-0.159946	-91.662881
6.000000	-0.162220	-92.302285	-28.660430	8.281799	-28.660430	8.281799	-0.162252	-92.337404
6.050000	-0.164537	-92.976049	-28.620873	7.855388	-28.620873	7.855388	-0.164570	-93.011405
6.100000	-0.166909	-93.647205	-28.581289	7.436192	-28.581289	7.436192	-0.166942	-93.682797
6.150000	-0.169287	-94.318104	-28.541854	7.017690	-28.541854	7.017690	-0.169320	-94.353933
6.200000	-0.171726	-94.986187	-28.502268	6.606821	-28.502268	6.606821	-0.171760	-95.022252
6.250000	-0.174166	-95.654270	-28.462861	6.195953	-28.462861	6.195953	-0.174201	-95.690571
6.300000	-0.176675	-96.319341	-28.423160	5.793047	-28.423160	5.793047	-0.176710	-96.355878
6.350000	-0.179185	-96.984412	-28.383640	5.390141	-28.383640	5.390141	-0.179220	-97.021185
6.400000	-0.181759	-97.646779	-28.343767	4.994167	-28.343767	4.994167	-0.181795	-97.683788
6.450000	-0.184339	-98.308901	-28.304028	4.598822	-28.304028	4.598822	-0.184376	-98.346145
6.500000	-0.186980	-98.968618	-28.263897	4.209416	-28.263897	4.209416	-0.187017	-99.006098
6.550000	-0.189633	-99.627855	-28.223836	3.821197	-28.223836	3.821197	-0.189671	-99.665570
6.600000	-0.192341	-100.284978	-28.183367	3.437970	-28.183367	3.437970	-0.192380	-100.322930
6.650000	-0.195069	-100.941397	-28.142888	3.056407	-28.142888	3.056407	-0.195108	-100.979585
6.700000	-0.197847	-101.595984	-28.102005	2.678945	-28.102005	2.678945	-0.197887	-101.634408
6.750000	-0.200651	-102.249654	-28.061017	2.303534	-28.061017	2.303534	-0.200691	-102.288315
6.800000	-0.203500	-102.901763	-28.019647	1.931399	-28.019647	1.931399	-0.203540	-102.940660
6.850000	-0.206381	-103.552757	-27.978065	1.561604	-27.978065	1.561604	-0.206422	-103.591891
6.900000	-0.209302	-104.202449	-27.936144	1.194335	-27.936144	1.194335	-0.209344	-104.241820
6.950000	-0.212262	-104.850840	-27.893890	0.829593	-27.893890	0.829593	-0.212305	-104.890448
7.000000	-0.215257	-105.498177	-27.851357	0.466709	-27.851357	0.466709	-0.215300	-105.538023
7.050000	-0.218298	-106.144040	-27.808358	0.106429	-27.808358	0.106429	-0.218342	-106.184124
7.100000	-0.221368	-106.789086	-27.765159	-0.252569	-27.765159	-0.252569	-0.221412	-106.829409
7.150000	-0.224492	-107.432499	-27.721354	-0.609001	-27.721354	-0.609001	-0.224537	-107.473061
7.200000	-0.227637	-108.075319	-27.677441	-0.964628	-27.677441	-0.964628	-0.227683	-108.116120
7.250000	-0.230845	-108.716361	-27.632773	-1.317842	-27.632773	-1.317842	-0.230891	-108.757403
7.300000	-0.234068	-109.357022	-27.588105	-1.670628	-27.588105	-1.670628	-0.234115	-109.398304
7.350000	-0.237362	-109.995775	-27.542527	-2.021268	-27.542527	-2.021268	-0.237409	-110.037299
7.400000	-0.240663	-110.634344	-27.497069	-2.371748	-27.497069	-2.371748	-0.240712	-110.676110
7.450000	-0.244044	-111.270891	-27.450545	-2.720465	-27.450545	-2.720465	-0.244093	-111.312900
7.500000	-0.247426	-111.907439	-27.404269	-3.069183	-27.404269	-3.069183	-0.247475	-111.949690
7.550000	-0.250895	-112.541865	-27.356770	-3.416631	-27.356770	-3.416631	-0.250945	-112.584362
7.600000	-0.254366	-113.176292	-27.309529	-3.764079	-27.309529	-3.764079	-0.254417	-113.219033
7.650000	-0.257918	-113.808855	-27.261161	-4.110957	-27.261161	-4.110957	-0.257969	-113.851842
7.700000	-0.261478	-114.441248	-27.212937	-4.457782	-27.212937	-4.457782	-0.261531	-114.484482
7.750000	-0.265114	-115.072021	-27.163696	-4.804620	-27.163696	-4.804620	-0.265167	-115.115502
7.800000	-0.268767	-115.702469	-27.114478	-5.151460	-27.114478	-5.151460	-0.268820	-115.746199
7.850000	-0.272488	-116.331527	-27.064366	-5.498773	-27.064366	-5.498773	-0.272542	-116.375507
7.900000	-0.276233	-116.960121	-27.014153	-5.846244	-27.014153	-5.846244	-0.276288	-117.004352
7.950000	-0.280041	-117.587541	-26.963179	-6.194530	-26.963179	-6.194530	-0.280096	-117.632024
8.000000	-0.283880	-118.214373	-26.911980	-6.543223	-26.911980	-6.543223	-0.283937	-118.259109
8.050000	-0.287776	-118.840233	-26.860158	-6.892957	-26.860158	-6.892957	-0.287832	-118.885223
8.100000	-0.291711	-119.465397	-26.807988	-7.243433	-26.807988	-7.243433	-0.291769	-119.510643
8.150000	-0.295695	-120.089776	-26.755339	-7.595060	-26.755339	-7.595060	-0.295753	-120.135279
8.200000	-0.299728	-120.713369	-26.702223	-7.947840	-26.702223	-7.947840	-0.299786	-120.759130
8.250000	-0.303801	-121.336347	-26.648774	-8.301777	-26.648774	-8.301777	-0.303861	-121.382368
8.300000	-0.307932	-121.958466	-26.594740	-8.657337	-26.594740	-8.657337	-0.307992	-122.004747
8.350000	-0.312097	-122.580126	-26.540521	-9.013967	-26.540521	-9.013967	-0.312158	-122.626669
8.400000	-0.316328	-123.200869	-26.485607	-9.372735	-26.485607	-9.372735	-0.316389	-123.247677
8.450000	-0.320584	-123.821294	-26.430654	-9.732399	-26.430654	-9.732399	-0.320647	-123.868367
8.500000	-0.324916	-124.440764	-26.374900	-10.094750	-26.374900	-10.094750	-0.324979	-124.488105
8.550000	-0.329266	-125.060038	-26.319250	-10.457752	-26.319250	-10.457752	-0.329329	-125.107647
8.600000	-0.333699	-125.678337	-26.262702	-10.824005	-26.262702	-10.824005	-0.333763	-125.726217
8.650000	-0.338143	-126.296547	-26.206396	-11.190604	-26.206396	-11.190604	-0.338208	-126.344699
8.700000	-0.342680	-126.913779	-26.149101	-11.561017	-26.149101	-11.561017	-0.342745	-126.962206
8.750000	-0.347219	-127.531012	-26.092182	-11.931430	-26.092182	-11.931430	-0.347285	-127.579713
8.800000	-0.351859	-128.147284	-26.034189	-12.306202	-26.034189	-12.306202	-0.351926	-128.196265
8.850000	-0.356503	-128.763557	-25.976581	-12.680975	-25.976581	-12.680975	-0.356570	-128.812817
8.900000	-0.361240	-129.379049	-25.918059	-13.059870	-25.918059	-13.059870	-0.361309	-129.428592
8.950000	-0.365989	-129.994471	-25.859812	-13.439141	-25.859812	-13.439141	-0.366058	-130.044297
9.000000	-0.370825	-130.609274	-25.800803	-13.822226	-25.800803	-13.822226	-0.370894	-130.659387
9.050000	-0.375680	-131.223954	-25.741964	-14.206073	-25.741964	-14.206073	-0.375750	-131.274355
9.100000	-0.380614	-131.838163	-25.682511	-14.593371	-25.682511	-14.593371	-0.380685	-131.888855
9.150000	-0.385576	-132.452214	-25.623127	-14.981818	-25.623127	-14.981818	-0.385648	-132.503198
9.200000	-0.390610	-133.065922	-25.563267	-15.373309	-25.563267	-15.373309	-0.390682	-133.117202
9.250000	-0.395680	-133.679458	-25.503380	-15.766323	-25.503380	-15.766323	-0.395753	-133.731035
9.300000	-0.400814	-134.292761	-25.443150	-16.161952	-25.443150	-16.161952	-0.400888	-134.344639
9.350000	-0.405993	-134.905898	-25.382800	-16.559448	-25.382800	-16.559448	-0.406068	-134.958079
9.400000	-0.411227	-135.518895	-25.322231	-16.959121	-25.322231	-16.959121	-0.411303	-135.571381
9.450000	-0.416516	-136.131751	-25.261451	-17.360971	-25.261451	-17.360971	-0.416592	-136.184545
9.500000	-0.421852	-136.744541	-25.200571	-17.764562	-25.200571	-17.764562	-0.421928	-136.797645
9.550000	-0.427251	-137.357236	-25.139389	-18.170591	-25.139389	-18.170591	-0.427328	-137.410654
9.600000	-0.432688	-137.969919	-25.078220	-18.577945	-25.078220	-18.577945	-0.432766	-138.023653
9.650000	-0.438198	-138.582576	-25.016657	-18.987947	-25.016657	-18.987947	-0.438277	-138.636630
9.700000	-0.443738	-139.195255	-24.955218	-19.398882	-24.955218	-19.398882	-0.443818	-139.249630
9.750000	-0.449359	-139.807999	-24.893288	-19.812618	-24.893288	-19.812618	-0.449440	-139.862699
9.800000	-0.455002	-140.420778	-24.831590	-20.226931	-24.831590	-20.226931	-0.455083	-140.475806
9.850000	-0.460735	-141.033734	-24.769300	-20.644136	-24.769300	-20.644136	-0.460817	-141.089095
9.900000	-0.466480	-141.646719	-24.707349	-21.061607	-24.707349	-21.061607	-0.466563	-141.702413
9.950000	-0.472325	-142.260018	-24.644697	-21.481999	-24.644697	-21.481999	-0.472408	-142.316051
10.000000	-0.478174	-142.873316	-24.582494	-21.902391	-24.582494	-21.902391	-0.478258	-142.929689
