! freq	dB(S11)	phase(S11)	dB(S12)	phase(S12)	
!     	dB(S21)	phase(S21)	dB(S22)	phase(S22)	
!S-par simulation data
#  GHz  S  DB  R 50
0.000000	-0.000000	0.000000	-340.567114	0.000000	-340.567114	0.000000	-0.000000	0.000000
0.050000	-0.000107	-0.873903	-70.816108	87.577813	-70.816108	87.577813	-0.000101	-0.807438
0.100000	-0.000424	-1.747549	-64.975632	86.538989	-64.975632	86.538989	-0.000400	-1.614632
0.150000	-0.000939	-2.620699	-61.553565	85.938740	-61.553565	85.938740	-0.000886	-2.421358
0.200000	-0.001633	-3.493152	-59.108168	85.360069	-59.108168	85.360069	-0.001538	-3.227430
0.250000	-0.002493	-4.364679	-57.201776	84.731318	-57.201776	84.731318	-0.002346	-4.032635
0.300000	-0.003480	-5.235229	-55.639787	84.059776	-55.639787	84.059776	-0.003270	-4.836934
0.350000	-0.004577	-6.104674	-54.317441	83.354012	-54.317441	83.354012	-0.004294	-5.640215
0.400000	-0.005759	-6.972956	-53.171688	82.623405	-53.171688	82.623405	-0.005395	-6.442432
0.450000	-0.007005	-7.840047	-52.161559	81.874828	-52.161559	81.874828	-0.006551	-7.243570
0.500000	-0.008294	-8.705942	-51.258917	81.113141	-51.258917	81.113141	-0.007746	-8.043633
0.550000	-0.009611	-9.570653	-50.443602	80.341800	-50.443602	80.341800	-0.008963	-8.842643
0.600000	-0.010942	-10.434204	-49.700675	79.563300	-49.700675	79.563300	-0.010190	-9.640627
0.650000	-0.012275	-11.296623	-49.018761	78.779486	-49.018761	78.779486	-0.011418	-10.437621
0.700000	-0.013604	-12.157941	-48.388994	77.991754	-48.388994	77.991754	-0.012641	-11.233658
0.750000	-0.014923	-13.018187	-47.804338	77.201177	-47.804338	77.201177	-0.013852	-12.028769
0.800000	-0.016227	-13.877385	-47.259107	76.408607	-47.259107	76.408607	-0.015050	-12.822982
0.850000	-0.017514	-14.735558	-46.748647	75.614725	-46.748647	75.614725	-0.016232	-13.616320
0.900000	-0.018782	-15.592719	-46.269098	74.820092	-46.269098	74.820092	-0.017397	-14.408798
0.950000	-0.020033	-16.448879	-45.817223	74.025177	-45.817223	74.025177	-0.018546	-15.200430
1.000000	-0.021265	-17.304044	-45.390281	73.230377	-45.390281	73.230377	-0.019679	-15.991220
1.050000	-0.022480	-18.158212	-44.985930	72.436035	-44.985930	72.436035	-0.020797	-16.781171
1.100000	-0.023679	-19.011380	-44.602155	71.642454	-44.602155	71.642454	-0.021901	-17.570281
1.150000	-0.024863	-19.863539	-44.237207	70.849899	-44.237207	70.849899	-0.022992	-18.358544
1.200000	-0.026033	-20.714677	-43.889560	70.058613	-43.889560	70.058613	-0.024071	-19.145951
1.250000	-0.027191	-21.564781	-43.557872	69.268816	-43.557872	69.268816	-0.025140	-19.932491
1.300000	-0.028337	-22.413787	-43.241078	68.480791	-43.241078	68.480791	-0.026200	-20.718110
1.350000	-0.029473	-23.261720	-42.938009	67.694661	-42.938009	67.694661	-0.027251	-21.502831
1.400000	-0.030601	-24.108562	-42.647728	66.910602	-42.647728	66.910602	-0.028296	-22.286637
1.450000	-0.031722	-24.954289	-42.369398	66.128779	-42.369398	66.128779	-0.029335	-23.069511
1.500000	-0.032836	-25.798880	-42.102263	65.349351	-42.102263	65.349351	-0.030369	-23.851433
1.550000	-0.033945	-26.642312	-41.845642	64.572469	-41.845642	64.572469	-0.031398	-24.632385
1.600000	-0.035049	-27.484562	-41.598920	63.798281	-41.598920	63.798281	-0.032424	-25.412347
1.650000	-0.036150	-28.325605	-41.361534	63.026928	-41.361534	63.026928	-0.033448	-26.191299
1.700000	-0.037247	-29.164979	-41.133871	62.259646	-41.133871	62.259646	-0.034468	-26.968853
1.750000	-0.038342	-30.003703	-40.913318	61.493963	-40.913318	61.493963	-0.035488	-27.745864
1.800000	-0.039436	-30.840860	-40.701275	60.732289	-40.701275	60.732289	-0.036506	-28.521562
1.850000	-0.040528	-31.676898	-40.496411	59.973479	-40.496411	59.973479	-0.037523	-29.296323
1.900000	-0.041620	-32.511543	-40.298852	59.218384	-40.298852	59.218384	-0.038541	-30.069916
1.950000	-0.042711	-33.344794	-40.108214	58.467004	-40.108214	58.467004	-0.039558	-30.842341
2.000000	-0.043803	-34.176842	-39.923797	57.718946	-39.923797	57.718946	-0.040575	-31.613759
2.050000	-0.044895	-35.007208	-39.746132	56.975538	-39.746132	56.975538	-0.041594	-32.383766
2.100000	-0.045988	-35.836833	-39.573282	56.234235	-39.573282	56.234235	-0.042613	-33.153152
2.150000	-0.047082	-36.664534	-39.406992	55.498418	-39.406992	55.498418	-0.043633	-33.920924
2.200000	-0.048178	-37.490780	-39.246183	54.766835	-39.246183	54.766835	-0.044656	-34.687474
2.250000	-0.049276	-38.315550	-39.090636	54.039604	-39.090636	54.039604	-0.045680	-35.452786
2.300000	-0.050376	-39.138825	-38.940144	53.316844	-38.940144	53.316844	-0.046706	-36.216841
2.350000	-0.051479	-39.960586	-38.794515	52.598674	-38.794515	52.598674	-0.047735	-36.979624
2.400000	-0.052585	-40.780813	-38.653565	51.885210	-38.653565	51.885210	-0.048767	-37.741117
2.450000	-0.053694	-41.599489	-38.517124	51.176569	-38.517124	51.176569	-0.049802	-38.501304
2.500000	-0.054806	-42.416596	-38.385029	50.472869	-38.385029	50.472869	-0.050841	-39.260170
2.550000	-0.055923	-43.232046	-38.257223	49.774450	-38.257223	49.774450	-0.051883	-40.017640
2.600000	-0.057044	-44.045893	-38.133461	49.081214	-38.133461	49.081214	-0.052929	-40.773758
2.650000	-0.058170	-44.858119	-38.013606	48.393276	-38.013606	48.393276	-0.053979	-41.528508
2.700000	-0.059300	-45.668710	-37.897525	47.710751	-37.897525	47.710751	-0.055034	-42.281877
2.750000	-0.060436	-46.477650	-37.785094	47.033754	-37.785094	47.033754	-0.056094	-43.033850
2.800000	-0.061578	-47.284925	-37.676193	46.362399	-37.676193	46.362399	-0.057159	-43.784415
2.850000	-0.062726	-48.090521	-37.570706	45.696800	-37.570706	45.696800	-0.058230	-44.533559
2.900000	-0.063880	-48.894425	-37.468526	45.037072	-37.468526	45.037072	-0.059306	-45.281268
2.950000	-0.065040	-49.696624	-37.369547	44.383327	-37.369547	44.383327	-0.060389	-46.027531
3.000000	-0.066208	-50.497106	-37.273669	43.735679	-37.273669	43.735679	-0.061479	-46.772336
3.050000	-0.067383	-51.295860	-37.180794	43.094240	-37.180794	43.094240	-0.062575	-47.515672
3.100000	-0.068566	-52.092873	-37.090829	42.459123	-37.090829	42.459123	-0.063678	-48.257527
3.150000	-0.069757	-52.888137	-37.003686	41.830441	-37.003686	41.830441	-0.064789	-48.997891
3.200000	-0.070957	-53.681639	-36.919275	41.208303	-36.919275	41.208303	-0.065908	-49.736754
3.250000	-0.072166	-54.473372	-36.837515	40.592823	-36.837515	40.592823	-0.067035	-50.474106
3.300000	-0.073385	-55.263325	-36.758323	39.984109	-36.758323	39.984109	-0.068171	-51.209938
3.350000	-0.074615	-56.051178	-36.681923	39.383502	-36.681923	39.383502	-0.069318	-51.943972
3.400000	-0.075855	-56.837156	-36.608007	38.790189	-36.608007	38.790189	-0.070475	-52.676400
3.450000	-0.077102	-57.622191	-36.535597	38.200621	-36.535597	38.200621	-0.071636	-53.408019
3.500000	-0.078365	-58.404396	-36.466413	37.622289	-36.466413	37.622289	-0.072814	-54.137207
3.550000	-0.079633	-59.185967	-36.398339	37.046533	-36.398339	37.046533	-0.073995	-54.865851
3.600000	-0.080921	-59.964371	-36.333591	36.483650	-36.333591	36.483650	-0.075195	-55.591768
3.650000	-0.082212	-60.742456	-36.269590	35.922093	-36.269590	35.922093	-0.076398	-56.317410
3.700000	-0.083526	-61.517036	-36.208990	35.375118	-36.208990	35.375118	-0.077622	-57.040027
3.750000	-0.084841	-62.291616	-36.148811	34.828142	-36.148811	34.828142	-0.078847	-57.762644
3.800000	-0.086184	-63.062354	-36.092085	34.297522	-36.092085	34.297522	-0.080098	-58.481936
3.850000	-0.087528	-63.833093	-36.035726	33.766901	-36.035726	33.766901	-0.081349	-59.201229
3.900000	-0.088899	-64.600298	-35.982363	33.251673	-35.982363	33.251673	-0.082625	-59.917454
3.950000	-0.090272	-65.367182	-35.929563	32.737843	-35.929563	32.737843	-0.083904	-60.633400
4.000000	-0.091672	-66.130846	-35.879329	32.238356	-35.879329	32.238356	-0.085207	-61.346543
4.050000	-0.093078	-66.893866	-35.829831	31.741737	-35.829831	31.741737	-0.086515	-62.059126
4.100000	-0.094510	-67.653985	-35.782500	31.258329	-35.782500	31.258329	-0.087846	-62.769175
4.150000	-0.095950	-68.413138	-35.736051	30.779325	-35.736051	30.779325	-0.089186	-63.478379
4.200000	-0.097413	-69.169712	-35.691400	30.312317	-35.691400	30.312317	-0.090547	-64.185325
4.250000	-0.098889	-69.924997	-35.647750	29.851307	-35.647750	29.851307	-0.091920	-64.891141
4.300000	-0.100387	-70.678028	-35.605561	29.401002	-35.605561	29.401002	-0.093313	-65.594976
4.350000	-0.101901	-71.429450	-35.564460	28.958343	-35.564460	28.958343	-0.094720	-66.297396
4.400000	-0.103435	-72.178945	-35.524518	28.525023	-35.524518	28.525023	-0.096146	-66.998116
4.450000	-0.104989	-72.926512	-35.485720	28.101040	-35.485720	28.101040	-0.097589	-67.697136
4.500000	-0.106560	-73.672479	-35.447811	27.684960	-35.447811	27.684960	-0.099049	-68.394739
4.550000	-0.108155	-74.416205	-35.411065	27.279944	-35.411065	27.279944	-0.100531	-69.090359
4.600000	-0.109765	-75.158657	-35.374976	26.881334	-35.374976	26.881334	-0.102027	-69.784846
4.650000	-0.111404	-75.898558	-35.340035	26.495534	-35.340035	26.495534	-0.103549	-70.477068
4.700000	-0.113054	-76.637509	-35.305554	26.114588	-35.305554	26.114588	-0.105082	-71.168442
4.750000	-0.114738	-77.373608	-35.272166	25.748205	-35.272166	25.748205	-0.106645	-71.857272
4.800000	-0.116430	-78.109076	-35.239081	25.385083	-35.239081	25.385083	-0.108217	-72.545539
4.850000	-0.118162	-78.841396	-35.206992	25.038264	-35.206992	25.038264	-0.109824	-73.230987
4.900000	-0.119898	-79.573403	-35.175090	24.693083	-35.175090	24.693083	-0.111435	-73.916153
4.950000	-0.121678	-80.301974	-35.144045	24.365913	-35.144045	24.365913	-0.113088	-74.598231
5.000000	-0.123459	-81.030544	-35.113112	24.038742	-35.113112	24.038742	-0.114740	-75.280308
5.050000	-0.125291	-81.755397	-35.082854	23.731234	-35.082854	23.731234	-0.116440	-75.959030
5.100000	-0.127123	-82.480249	-35.052702	23.423725	-35.052702	23.423725	-0.118140	-76.637753
5.150000	-0.129003	-83.201728	-35.022944	23.134179	-35.022944	23.134179	-0.119884	-77.313416
5.200000	-0.130887	-83.922900	-34.993315	22.846267	-34.993315	22.846267	-0.121632	-77.988802
5.250000	-0.132817	-84.641037	-34.963838	22.574555	-34.963838	22.574555	-0.123422	-78.661425
5.300000	-0.134756	-85.358567	-34.934471	22.306084	-34.934471	22.306084	-0.125221	-79.333495
5.350000	-0.136737	-86.073398	-34.905055	22.052006	-34.905055	22.052006	-0.127058	-80.003096
5.400000	-0.138733	-86.787330	-34.875690	21.802725	-34.875690	21.802725	-0.128909	-80.671875
5.450000	-0.140766	-87.498894	-34.846117	21.566000	-34.846117	21.566000	-0.130795	-81.338477
5.500000	-0.142820	-88.209273	-34.816491	21.335552	-34.816491	21.335552	-0.132699	-82.003991
5.550000	-0.144908	-88.917610	-34.786543	21.115816	-34.786543	21.115816	-0.134636	-82.667618
5.600000	-0.147021	-89.624487	-34.756397	20.903730	-34.756397	20.903730	-0.136596	-83.329897
5.650000	-0.149165	-90.329640	-34.725858	20.700530	-34.725858	20.700530	-0.138584	-83.990574
5.700000	-0.151340	-91.033068	-34.694933	20.506215	-34.694933	20.506215	-0.140601	-84.649650
5.750000	-0.153541	-91.735081	-34.663592	20.319003	-34.663592	20.319003	-0.142642	-85.307406
5.800000	-0.155779	-92.435115	-34.631633	20.141738	-34.631633	20.141738	-0.144718	-85.963314
5.850000	-0.158039	-93.134038	-34.599284	19.969873	-34.599284	19.969873	-0.146813	-86.618178
5.900000	-0.160342	-93.830737	-34.566044	19.808807	-34.566044	19.808807	-0.148949	-87.270955
5.950000	-0.162661	-94.526618	-34.532486	19.651544	-34.532486	19.651544	-0.151101	-87.922959
6.000000	-0.165030	-95.220044	-34.497726	19.505692	-34.497726	19.505692	-0.153298	-88.572645
6.050000	-0.167412	-95.912935	-34.462766	19.362189	-34.462766	19.362189	-0.155507	-89.221822
6.100000	-0.169849	-96.603153	-34.426257	19.230431	-34.426257	19.230431	-0.157769	-89.868459
6.150000	-0.172293	-97.293108	-34.389712	19.099745	-34.389712	19.099745	-0.160036	-90.514845
6.200000	-0.174800	-97.980184	-34.351242	18.980833	-34.351242	18.980833	-0.162362	-91.158477
6.250000	-0.177308	-98.667260	-34.312941	18.861921	-34.312941	18.861921	-0.164689	-91.802109
6.300000	-0.179886	-99.351265	-34.272310	18.754481	-34.272310	18.754481	-0.167083	-92.442782
6.350000	-0.182466	-100.035269	-34.231868	18.647041	-34.231868	18.647041	-0.169477	-93.083455
6.400000	-0.185111	-100.716525	-34.189125	18.548751	-34.189125	18.548751	-0.171933	-93.721461
6.450000	-0.187764	-101.397530	-34.146366	18.451292	-34.146366	18.451292	-0.174395	-94.359225
6.500000	-0.190477	-102.076099	-34.101388	18.360826	-34.101388	18.360826	-0.176915	-94.994607
6.550000	-0.193204	-102.754180	-34.056158	18.271758	-34.056158	18.271758	-0.179447	-95.629512
6.600000	-0.195988	-103.430126	-34.008839	18.187724	-34.008839	18.187724	-0.182032	-96.262312
6.650000	-0.198791	-104.105361	-33.961008	18.105368	-33.961008	18.105368	-0.184636	-96.894411
6.700000	-0.201645	-104.778750	-33.911267	18.026324	-33.911267	18.026324	-0.187288	-97.524676
6.750000	-0.204525	-105.451218	-33.860729	17.948934	-33.860729	17.948934	-0.189965	-98.154024
6.800000	-0.207452	-106.122119	-33.808504	17.873398	-33.808504	17.873398	-0.192685	-98.781800
6.850000	-0.210411	-106.791901	-33.755184	17.799184	-33.755184	17.799184	-0.195436	-99.408454
6.900000	-0.213411	-107.460382	-33.700434	17.725651	-33.700434	17.725651	-0.198225	-100.033790
6.950000	-0.216451	-108.127563	-33.644283	17.652799	-33.644283	17.652799	-0.201052	-100.657807
7.000000	-0.219525	-108.793697	-33.586993	17.579760	-33.586993	17.579760	-0.203912	-101.280752
7.050000	-0.222648	-109.458363	-33.527993	17.506460	-33.527993	17.506460	-0.206816	-101.902195
7.100000	-0.225798	-110.122221	-33.468170	17.432416	-33.468170	17.432416	-0.209748	-102.522800
7.150000	-0.229003	-110.784461	-33.406330	17.356884	-33.406330	17.356884	-0.212731	-103.141730
7.200000	-0.232230	-111.446118	-33.344002	17.280363	-33.344002	17.280363	-0.215735	-103.760048
7.250000	-0.235521	-112.106023	-33.279361	17.200873	-33.279361	17.200873	-0.218799	-104.376529
7.300000	-0.238826	-112.765554	-33.214579	17.120447	-33.214579	17.120447	-0.221877	-104.992612
7.350000	-0.242202	-113.423216	-33.147203	17.035347	-33.147203	17.035347	-0.225023	-105.606710
7.400000	-0.245587	-114.080699	-33.080037	16.949650	-33.080037	16.949650	-0.228176	-106.220615
7.450000	-0.249051	-114.736212	-33.010017	16.857389	-33.010017	16.857389	-0.231405	-106.832397
7.500000	-0.252516	-115.391726	-32.940557	16.765128	-32.940557	16.765128	-0.234635	-107.444179
7.550000	-0.256069	-116.045188	-32.868008	16.664278	-32.868008	16.664278	-0.237948	-108.053714
7.600000	-0.259623	-116.698651	-32.796059	16.563427	-32.796059	16.563427	-0.241263	-108.663249
7.650000	-0.263258	-117.350323	-32.721414	16.453517	-32.721414	16.453517	-0.244655	-109.270790
7.700000	-0.266902	-118.001832	-32.647110	16.342784	-32.647110	16.342784	-0.248055	-109.878149
7.750000	-0.270621	-118.651797	-32.570510	16.222862	-32.570510	16.222862	-0.251527	-110.483755
7.800000	-0.274357	-119.301454	-32.494000	16.101103	-32.494000	16.101103	-0.255014	-111.089010
7.850000	-0.278161	-119.949798	-32.415594	15.970338	-32.415594	15.970338	-0.258567	-111.692742
7.900000	-0.281989	-120.597705	-32.337042	15.836570	-32.337042	15.836570	-0.262143	-112.295967
7.950000	-0.285879	-121.244514	-32.256985	15.694253	-32.256985	15.694253	-0.265779	-112.897889
8.000000	-0.289801	-121.890775	-32.176564	15.547661	-32.176564	15.547661	-0.269444	-113.499159
8.050000	-0.293778	-122.536138	-32.095016	15.393209	-32.095016	15.393209	-0.273162	-114.099334
8.100000	-0.297795	-123.180859	-32.012907	15.233143	-32.012907	15.233143	-0.276919	-114.698726
8.150000	-0.301859	-123.824865	-31.930031	15.066100	-31.930031	15.066100	-0.280721	-115.297218
8.200000	-0.305972	-124.468155	-31.846416	14.892079	-31.846416	14.892079	-0.284570	-115.894810
8.250000	-0.310125	-125.110895	-31.762373	14.712110	-31.762373	14.712110	-0.288458	-116.491686
8.300000	-0.314335	-125.752863	-31.677436	14.523815	-31.677436	14.523815	-0.292399	-117.087558
8.350000	-0.318578	-126.394429	-31.592386	14.330706	-31.592386	14.330706	-0.296373	-117.682884
8.400000	-0.322886	-127.035188	-31.506308	14.127972	-31.506308	14.127972	-0.300409	-118.277118
8.450000	-0.327220	-127.675674	-31.420406	13.921623	-31.420406	13.921623	-0.304470	-118.870963
8.500000	-0.331626	-128.315337	-31.333360	13.704431	-31.333360	13.704431	-0.308601	-119.463641
8.550000	-0.336051	-128.954838	-31.246755	13.484850	-31.246755	13.484850	-0.312749	-120.056074
8.600000	-0.340558	-129.593521	-31.158909	13.253317	-31.158909	13.253317	-0.316977	-120.647280
8.650000	-0.345075	-130.232133	-31.071742	13.020610	-31.071742	13.020610	-0.321214	-121.238372
8.700000	-0.349682	-130.869955	-30.983254	12.774975	-30.983254	12.774975	-0.325539	-121.828193
8.750000	-0.354292	-131.507776	-30.895657	12.529340	-30.895657	12.529340	-0.329866	-122.418013
8.800000	-0.359001	-132.144855	-30.806670	12.269949	-30.806670	12.269949	-0.334289	-123.006536
8.850000	-0.363713	-132.781934	-30.718586	12.010558	-30.718586	12.010558	-0.338714	-123.595059
8.900000	-0.368516	-133.418444	-30.629414	11.738962	-30.629414	11.738962	-0.343229	-124.182473
8.950000	-0.373330	-134.054903	-30.540971	11.466257	-30.540971	11.466257	-0.347753	-124.769786
9.000000	-0.378227	-134.690947	-30.451714	11.182891	-30.451714	11.182891	-0.352359	-125.356167
9.050000	-0.383144	-135.326908	-30.363028	10.897393	-30.363028	10.897393	-0.356983	-125.942361
9.100000	-0.388138	-135.962590	-30.273774	10.602742	-30.273774	10.602742	-0.361682	-126.527784
9.150000	-0.393158	-136.598180	-30.184946	10.305040	-30.184946	10.305040	-0.366406	-127.112952
9.200000	-0.398247	-137.233607	-30.095770	9.999629	-30.095770	9.999629	-0.371198	-127.697496
9.250000	-0.403372	-137.868953	-30.006885	9.690364	-30.006885	9.690364	-0.376024	-128.281730
9.300000	-0.408557	-138.504233	-29.917850	9.374751	-29.917850	9.374751	-0.380909	-128.865474
9.350000	-0.413787	-139.139466	-29.828978	9.054604	-29.828978	9.054604	-0.385837	-129.448869
9.400000	-0.419068	-139.774708	-29.740135	8.729372	-29.740135	8.729372	-0.390817	-130.031894
9.450000	-0.424403	-140.409959	-29.651330	8.399053	-29.651330	8.399053	-0.395847	-130.614547
9.500000	-0.429781	-141.045274	-29.562717	8.064800	-29.562717	8.064800	-0.400921	-131.196933
9.550000	-0.435221	-141.680679	-29.474019	7.725037	-29.474019	7.725037	-0.406054	-131.778943
9.600000	-0.440697	-142.316180	-29.385663	7.382371	-29.385663	7.382371	-0.411223	-132.360773
9.650000	-0.446242	-142.951874	-29.297097	7.033898	-29.297097	7.033898	-0.416460	-132.942241
9.700000	-0.451815	-143.587676	-29.209012	6.683430	-29.209012	6.683430	-0.421724	-133.523598
9.750000	-0.457465	-144.223800	-29.120586	6.326978	-29.120586	6.326978	-0.427064	-134.104625
9.800000	-0.463136	-144.860019	-29.032777	5.969317	-29.032777	5.969317	-0.432424	-134.685596
9.850000	-0.468892	-145.496714	-28.944488	5.605609	-28.944488	5.605609	-0.437868	-135.266286
9.900000	-0.474659	-146.133468	-28.856949	5.241355	-28.856949	5.241355	-0.443323	-135.846956
9.950000	-0.480520	-146.770878	-28.768778	4.871095	-28.768778	4.871095	-0.448871	-136.427415
10.000000	-0.486386	-147.408287	-28.681492	4.500834	-28.681492	4.500834	-0.454422	-137.007873
