! freq	dB(S11)	phase(S11)	dB(S12)	phase(S12)	
!     	dB(S21)	phase(S21)	dB(S22)	phase(S22)	
!S-par simulation data
#  GHz  S  DB  R 50
0.000000	-0.000000	0.000000	-321.529430	0.000000	-321.529430	0.000000	-0.000000	0.000000
0.050000	-0.000122	-0.983550	-59.164257	88.715921	-59.164257	88.715921	-0.000117	-0.962415
0.100000	-0.000485	-1.966813	-53.170667	87.503422	-53.170667	87.503422	-0.000463	-1.924567
0.150000	-0.001076	-2.949521	-49.682674	86.388076	-49.682674	86.388076	-0.001026	-2.886209
0.200000	-0.001875	-3.931445	-47.217063	85.354452	-47.217063	85.354452	-0.001789	-3.847130
0.250000	-0.002869	-4.912319	-45.308687	84.378382	-45.308687	84.378382	-0.002742	-4.807083
0.300000	-0.004015	-5.892079	-43.749956	83.431445	-43.749956	83.431445	-0.003843	-5.766005
0.350000	-0.005296	-6.870566	-42.432052	82.500823	-42.432052	82.500823	-0.005076	-6.723746
0.400000	-0.006684	-7.847700	-41.290213	81.577301	-41.290213	81.577301	-0.006416	-7.680228
0.450000	-0.008155	-8.823433	-40.282930	80.655857	-40.282930	80.655857	-0.007842	-8.635402
0.500000	-0.009689	-9.797745	-39.381976	79.733957	-39.381976	79.733957	-0.009331	-9.589246
0.550000	-0.011265	-10.770633	-38.567258	78.810462	-38.567258	78.810462	-0.010866	-10.541757
0.600000	-0.012868	-11.742110	-37.823948	77.884982	-37.823948	77.884982	-0.012431	-11.492945
0.650000	-0.014485	-12.712195	-37.140779	76.957518	-37.140779	76.957518	-0.014013	-12.442828
0.700000	-0.016108	-13.680912	-36.508984	76.028262	-36.508984	76.028262	-0.015603	-13.391431
0.750000	-0.017727	-14.648283	-35.921606	75.097491	-35.921606	75.097491	-0.017193	-14.338777
0.800000	-0.019339	-15.614328	-35.373024	74.165512	-35.373024	74.165512	-0.018778	-15.284889
0.850000	-0.020941	-16.579064	-34.858635	73.232631	-34.858635	73.232631	-0.020354	-16.229786
0.900000	-0.022529	-17.542501	-34.374620	72.299141	-34.374620	72.299141	-0.021918	-17.173483
0.950000	-0.024103	-18.504646	-33.917773	71.365313	-33.917773	71.365313	-0.023469	-18.115992
1.000000	-0.025664	-19.465497	-33.485378	70.431400	-33.485378	70.431400	-0.025007	-19.057316
1.050000	-0.027211	-20.425050	-33.075114	69.497630	-33.075114	69.497630	-0.026532	-19.997456
1.100000	-0.028746	-21.383295	-32.684980	68.564213	-32.684980	68.564213	-0.028044	-20.936409
1.150000	-0.030269	-22.340218	-32.313240	67.631340	-32.313240	67.631340	-0.029546	-21.874165
1.200000	-0.031782	-23.295801	-31.958377	66.699188	-31.958377	66.699188	-0.031037	-22.810715
1.250000	-0.033287	-24.250024	-31.619058	65.767916	-31.619058	65.767916	-0.032520	-23.746041
1.300000	-0.034784	-25.202802	-31.294177	64.837724	-31.294177	64.837724	-0.033995	-24.680073
1.350000	-0.036275	-26.154169	-30.982616	63.908710	-30.982616	63.908710	-0.035464	-25.612843
1.400000	-0.037761	-27.104096	-30.683439	62.980999	-30.683439	62.980999	-0.036928	-26.544328
1.450000	-0.039244	-28.052556	-30.395811	62.054709	-30.395811	62.054709	-0.038389	-27.474507
1.500000	-0.040725	-28.999519	-30.118979	61.129950	-30.118979	61.129950	-0.039847	-28.403354
1.550000	-0.042205	-29.944956	-29.852262	60.206824	-29.852262	60.206824	-0.041304	-29.330844
1.600000	-0.043684	-30.888835	-29.595045	59.285428	-29.595045	59.285428	-0.042761	-30.256952
1.650000	-0.045164	-31.831126	-29.346767	58.365853	-29.346767	58.365853	-0.044219	-31.181651
1.700000	-0.046645	-32.771800	-29.106915	57.448184	-29.106915	57.448184	-0.045678	-32.104916
1.750000	-0.048127	-33.710825	-28.875023	56.532504	-28.875023	56.532504	-0.047140	-33.026720
1.800000	-0.049612	-34.648171	-28.650661	55.618889	-28.650661	55.618889	-0.048604	-33.947038
1.850000	-0.051100	-35.583810	-28.433434	54.707412	-28.433434	54.707412	-0.050071	-34.865844
1.900000	-0.052592	-36.517712	-28.222978	53.798144	-28.222978	53.798144	-0.051542	-35.783112
1.950000	-0.054087	-37.449849	-28.018955	52.891150	-28.018955	52.891150	-0.053018	-36.698818
2.000000	-0.055586	-38.380192	-27.821054	51.986493	-27.821054	51.986493	-0.054498	-37.612938
2.050000	-0.057090	-39.308716	-27.628985	51.084233	-27.628985	51.084233	-0.055984	-38.525448
2.100000	-0.058598	-40.235393	-27.442478	50.184427	-27.442478	50.184427	-0.057475	-39.436326
2.150000	-0.060111	-41.160199	-27.261282	49.287131	-27.261282	49.287131	-0.058971	-40.345548
2.200000	-0.061630	-42.083109	-27.085162	48.392396	-27.085162	48.392396	-0.060474	-41.253093
2.250000	-0.063154	-43.004098	-26.913898	47.500272	-26.913898	47.500272	-0.061982	-42.158940
2.300000	-0.064683	-43.923144	-26.747284	46.610806	-26.747284	46.610806	-0.063498	-43.063070
2.350000	-0.066219	-44.840225	-26.585126	45.724043	-26.585126	45.724043	-0.065020	-43.965463
2.400000	-0.067760	-45.755320	-26.427244	44.840027	-26.427244	44.840027	-0.066549	-44.866101
2.450000	-0.069308	-46.668408	-26.273464	43.958798	-26.273464	43.958798	-0.068084	-45.764965
2.500000	-0.070863	-47.579470	-26.123626	43.080395	-26.123626	43.080395	-0.069628	-46.662040
2.550000	-0.072424	-48.488397	-25.977631	42.204981	-25.977631	42.204981	-0.071179	-47.557230
2.600000	-0.073992	-49.395260	-25.835278	41.332469	-25.835278	41.332469	-0.072738	-48.450597
2.650000	-0.075568	-50.300043	-25.696431	40.462892	-25.696431	40.462892	-0.074304	-49.342128
2.700000	-0.077151	-51.202729	-25.560959	39.596280	-25.560959	39.596280	-0.075879	-50.231808
2.750000	-0.078741	-52.103304	-25.428739	38.732664	-25.428739	38.732664	-0.077463	-51.119626
2.800000	-0.080340	-53.001754	-25.299655	37.872071	-25.299655	37.872071	-0.079055	-52.005570
2.850000	-0.081946	-53.898066	-25.173593	37.014527	-25.173593	37.014527	-0.080655	-52.889628
2.900000	-0.083561	-54.792226	-25.050448	36.160058	-25.050448	36.160058	-0.082265	-53.771790
2.950000	-0.085185	-55.684225	-24.930119	35.308686	-24.930119	35.308686	-0.083884	-54.652048
3.000000	-0.086817	-56.574051	-24.812507	34.460433	-24.812507	34.460433	-0.085513	-55.530392
3.050000	-0.088459	-57.461695	-24.697521	33.615319	-24.697521	33.615319	-0.087152	-56.406815
3.100000	-0.090111	-58.347147	-24.585072	32.773363	-24.585072	32.773363	-0.088801	-57.281310
3.150000	-0.091772	-59.230400	-24.475075	31.934581	-24.475075	31.934581	-0.090461	-58.153871
3.200000	-0.093444	-60.111447	-24.367448	31.098989	-24.367448	31.098989	-0.092131	-59.024492
3.250000	-0.095126	-60.990281	-24.262112	30.266602	-24.262112	30.266602	-0.093813	-59.893169
3.300000	-0.096820	-61.866897	-24.158994	29.437432	-24.158994	29.437432	-0.095506	-60.759898
3.350000	-0.098525	-62.741289	-24.058020	28.611491	-24.058020	28.611491	-0.097211	-61.624676
3.400000	-0.100241	-63.613454	-23.959121	27.788789	-23.959121	27.788789	-0.098928	-62.487501
3.450000	-0.101970	-64.483389	-23.862231	26.969336	-23.862231	26.969336	-0.100658	-63.348371
3.500000	-0.103711	-65.351091	-23.767283	26.153138	-23.767283	26.153138	-0.102401	-64.207285
3.550000	-0.105465	-66.216559	-23.674218	25.340202	-23.674218	25.340202	-0.104158	-65.064244
3.600000	-0.107232	-67.079791	-23.582973	24.530532	-23.582973	24.530532	-0.105928	-65.919248
3.650000	-0.109014	-67.940788	-23.493491	23.724134	-23.493491	23.724134	-0.107713	-66.772298
3.700000	-0.110809	-68.799551	-23.405717	22.921009	-23.405717	22.921009	-0.109512	-67.623397
3.750000	-0.112619	-69.656081	-23.319595	22.121158	-23.319595	22.121158	-0.111326	-68.472547
3.800000	-0.114445	-70.510282	-23.235106	21.324725	-23.235106	21.324725	-0.113157	-69.319669
3.850000	-0.116287	-71.362256	-23.152164	20.531565	-23.152164	20.531565	-0.115004	-70.164850
3.900000	-0.118145	-72.212005	-23.070721	19.741676	-23.070721	19.741676	-0.116867	-71.008096
3.950000	-0.120019	-73.059535	-22.990728	18.955054	-22.990728	18.955054	-0.118748	-71.849412
4.000000	-0.121911	-73.904850	-22.912138	18.171696	-22.912138	18.171696	-0.120646	-72.688806
4.050000	-0.123820	-74.747957	-22.834908	17.391594	-22.834908	17.391594	-0.122562	-73.526284
4.100000	-0.125747	-75.588861	-22.758992	16.614743	-22.758992	16.614743	-0.124496	-74.361854
4.150000	-0.127692	-76.427569	-22.684349	15.841133	-22.684349	15.841133	-0.126450	-75.195525
4.200000	-0.129657	-77.264091	-22.610937	15.070756	-22.610937	15.070756	-0.128423	-76.027305
4.250000	-0.131641	-78.098433	-22.538715	14.303600	-22.538715	14.303600	-0.130417	-76.857205
4.300000	-0.133645	-78.930606	-22.467645	13.539656	-22.467645	13.539656	-0.132431	-77.685235
4.350000	-0.135670	-79.760619	-22.397687	12.778910	-22.397687	12.778910	-0.134466	-78.511406
4.400000	-0.137716	-80.588482	-22.328805	12.021347	-22.328805	12.021347	-0.136523	-79.335730
4.450000	-0.139783	-81.414207	-22.260963	11.266955	-22.260963	11.266955	-0.138602	-80.158218
4.500000	-0.141873	-82.237805	-22.194124	10.515715	-22.194124	10.515715	-0.140703	-80.978885
4.550000	-0.143985	-83.059288	-22.128254	9.767612	-22.128254	9.767612	-0.142829	-81.797744
4.600000	-0.146120	-83.878670	-22.063319	9.022627	-22.063319	9.022627	-0.144978	-82.614808
4.650000	-0.148279	-84.695964	-21.999286	8.280741	-21.999286	8.280741	-0.147151	-83.430093
4.700000	-0.150463	-85.511183	-21.936123	7.541932	-21.936123	7.541932	-0.149350	-84.243614
4.750000	-0.152671	-86.324343	-21.873798	6.806181	-21.873798	6.806181	-0.151574	-85.055388
4.800000	-0.154904	-87.135459	-21.812279	6.073463	-21.812279	6.073463	-0.153824	-85.865430
4.850000	-0.157164	-87.944547	-21.751537	5.343755	-21.751537	5.343755	-0.156101	-86.673758
4.900000	-0.159450	-88.751622	-21.691542	4.617031	-21.691542	4.617031	-0.158405	-87.480390
4.950000	-0.161762	-89.556702	-21.632265	3.893266	-21.632265	3.893266	-0.160737	-88.285343
5.000000	-0.164103	-90.359804	-21.573677	3.172432	-21.573677	3.172432	-0.163098	-89.088638
5.050000	-0.166487	-91.159850	-21.515892	2.456122	-21.515892	2.456122	-0.165504	-89.889380
5.100000	-0.168871	-91.959896	-21.458488	1.739812	-21.458488	1.739812	-0.167910	-90.690121
5.150000	-0.171312	-92.756269	-21.401900	1.028929	-21.401900	1.028929	-0.170374	-91.487810
5.200000	-0.173757	-93.552309	-21.345717	0.318538	-21.345717	0.318538	-0.172844	-92.285221
5.250000	-0.176256	-94.345082	-21.290227	-0.387040	-21.290227	-0.387040	-0.175368	-93.079935
5.300000	-0.178765	-95.137202	-21.235155	-1.091656	-21.235155	-1.091656	-0.177904	-93.874110
5.350000	-0.181323	-95.926450	-21.180668	-1.792059	-21.180668	-1.792059	-0.180490	-94.665933
5.400000	-0.183898	-96.714741	-21.126600	-2.491058	-21.126600	-2.491058	-0.183094	-95.456971
5.450000	-0.186519	-97.500543	-21.073025	-3.186424	-21.073025	-3.186424	-0.185745	-96.245987
5.500000	-0.189162	-98.285101	-21.019857	-3.879974	-21.019857	-3.879974	-0.188420	-97.033992
5.550000	-0.191847	-99.067539	-20.967106	-4.570452	-20.967106	-4.570452	-0.191138	-97.820292
5.600000	-0.194561	-99.848463	-20.914739	-5.258735	-20.914739	-5.258735	-0.193887	-98.605373
5.650000	-0.197312	-100.627622	-20.862727	-5.944481	-20.862727	-5.944481	-0.196673	-99.389048
5.700000	-0.200100	-101.405016	-20.811065	-6.627691	-20.811065	-6.627691	-0.199498	-100.171319
5.750000	-0.202919	-102.180984	-20.759710	-7.308874	-20.759710	-7.308874	-0.202357	-100.952468
5.800000	-0.205783	-102.954955	-20.708659	-7.987218	-20.708659	-7.987218	-0.205261	-101.732046
5.850000	-0.208673	-103.727823	-20.657883	-8.664014	-20.657883	-8.664014	-0.208192	-102.510768
5.900000	-0.211615	-104.498483	-20.607353	-9.337713	-20.607353	-9.337713	-0.211178	-103.287777
5.950000	-0.214578	-105.268344	-20.557078	-10.010310	-20.557078	-10.010310	-0.214186	-104.064176
6.000000	-0.217601	-106.035809	-20.506982	-10.679599	-20.506982	-10.679599	-0.217256	-104.838744
6.050000	-0.220639	-106.802760	-20.457137	-11.348194	-20.457137	-11.348194	-0.220342	-105.612926
6.100000	-0.223746	-107.567148	-20.407390	-12.013320	-20.407390	-12.013320	-0.223499	-106.385184
6.150000	-0.226860	-108.331289	-20.357903	-12.678122	-20.357903	-12.678122	-0.226666	-107.157261
6.200000	-0.230053	-109.092722	-20.308425	-13.339349	-20.308425	-13.339349	-0.229913	-107.927346
6.250000	-0.233248	-109.854154	-20.259227	-14.000576	-20.259227	-14.000576	-0.233162	-108.697431
6.300000	-0.236529	-110.612758	-20.209940	-14.658181	-20.209940	-14.658181	-0.236503	-109.465484
6.350000	-0.239813	-111.371361	-20.160930	-15.315786	-20.160930	-15.315786	-0.239845	-110.233537
6.400000	-0.243179	-112.127490	-20.111795	-15.970337	-20.111795	-15.970337	-0.243274	-110.999862
6.450000	-0.246553	-112.883394	-20.062899	-16.624611	-20.062899	-16.624611	-0.246712	-111.766029
6.500000	-0.250006	-113.637158	-20.013854	-17.276364	-20.013854	-17.276364	-0.250231	-112.530749
6.550000	-0.253475	-114.390494	-19.965001	-17.927612	-19.965001	-17.927612	-0.253768	-113.295181
6.600000	-0.257017	-115.142006	-19.915990	-18.576832	-19.915990	-18.576832	-0.257380	-114.058426
6.650000	-0.260583	-115.892910	-19.867112	-19.225375	-19.867112	-19.225375	-0.261019	-114.821277
6.700000	-0.264215	-116.642285	-19.818079	-19.872337	-19.818079	-19.872337	-0.264727	-115.583179
6.750000	-0.267882	-117.390896	-19.769110	-20.518508	-19.769110	-20.518508	-0.268470	-116.344607
6.800000	-0.271608	-118.138251	-19.720005	-21.163499	-19.720005	-21.163499	-0.272276	-117.105301
6.850000	-0.275377	-118.884710	-19.670883	-21.807645	-19.670883	-21.807645	-0.276127	-117.865471
6.900000	-0.279199	-119.630166	-19.621656	-22.450959	-19.621656	-22.450959	-0.280033	-118.625096
6.950000	-0.283073	-120.374618	-19.572325	-23.093440	-19.572325	-23.093440	-0.283995	-119.384176
7.000000	-0.286994	-121.118296	-19.522928	-23.735381	-19.522928	-23.735381	-0.288005	-120.142874
7.050000	-0.290977	-121.860890	-19.473333	-24.376567	-19.473333	-24.376567	-0.292081	-120.901037
7.100000	-0.294998	-122.602913	-19.423725	-25.017448	-19.423725	-25.017448	-0.296197	-121.658954
7.150000	-0.299093	-123.343798	-19.373815	-25.657720	-19.373815	-25.657720	-0.300390	-122.416377
7.200000	-0.303217	-124.084295	-19.323955	-26.297862	-19.323955	-26.297862	-0.304614	-123.173661
7.250000	-0.307427	-124.823625	-19.273683	-26.937611	-19.273683	-26.937611	-0.308928	-123.930528
7.300000	-0.311657	-125.562722	-19.223535	-27.577339	-19.223535	-27.577339	-0.313263	-124.687332
7.350000	-0.315984	-126.300654	-19.172858	-28.216963	-19.172858	-28.216963	-0.317700	-125.443828
7.400000	-0.320323	-127.038482	-19.122389	-28.856610	-19.122389	-28.856610	-0.322150	-126.200309
7.450000	-0.324770	-127.775175	-19.071268	-29.496513	-19.071268	-29.496513	-0.326715	-126.956627
7.500000	-0.329220	-128.511868	-19.020446	-30.136416	-19.020446	-30.136416	-0.331281	-127.712944
7.550000	-0.333792	-129.247485	-18.968847	-30.777006	-18.968847	-30.777006	-0.335976	-128.469280
7.600000	-0.338366	-129.983101	-18.917552	-31.417595	-18.917552	-31.417595	-0.340674	-129.225616
7.650000	-0.343054	-130.717882	-18.865536	-32.059190	-18.865536	-32.059190	-0.345492	-129.982154
7.700000	-0.347755	-131.452586	-18.813738	-32.700876	-18.813738	-32.700876	-0.350324	-130.738711
7.750000	-0.352564	-132.186671	-18.761286	-33.343818	-18.761286	-33.343818	-0.355268	-131.495623
7.800000	-0.357395	-132.920632	-18.708957	-33.987010	-18.708957	-33.987010	-0.360238	-132.252606
7.850000	-0.362326	-133.654163	-18.656051	-34.631638	-18.656051	-34.631638	-0.365312	-133.010070
7.900000	-0.367291	-134.387551	-18.603171	-35.276745	-18.603171	-35.276745	-0.370423	-133.767692
7.950000	-0.372347	-135.120673	-18.549797	-35.923396	-18.549797	-35.923396	-0.375629	-134.525887
8.000000	-0.377450	-135.853661	-18.496345	-36.570819	-18.496345	-36.570819	-0.380885	-135.284367
8.050000	-0.382634	-136.586520	-18.442491	-37.219824	-18.442491	-37.219824	-0.386228	-136.043477
8.100000	-0.387878	-137.319286	-18.388453	-37.869959	-18.388453	-37.869959	-0.391633	-136.803037
8.150000	-0.393193	-138.052030	-18.334111	-38.521645	-18.334111	-38.521645	-0.397114	-137.563252
8.200000	-0.398581	-138.784752	-18.279474	-39.174879	-18.279474	-39.174879	-0.402672	-138.324121
8.250000	-0.404031	-139.517532	-18.224638	-39.829562	-18.224638	-39.829562	-0.408296	-139.085633
8.300000	-0.409566	-140.250394	-18.169395	-40.486273	-18.169395	-40.486273	-0.414011	-139.848046
8.350000	-0.415141	-140.983328	-18.114172	-41.143928	-18.114172	-41.143928	-0.419768	-140.610895
8.400000	-0.420813	-141.716470	-18.058453	-41.804059	-18.058453	-41.804059	-0.425627	-141.374893
8.450000	-0.426558	-142.449825	-18.002454	-42.466137	-18.002454	-42.466137	-0.431565	-142.139820
8.500000	-0.432379	-143.183434	-17.946177	-43.130240	-17.946177	-43.130240	-0.437583	-142.905734
8.550000	-0.438275	-143.917343	-17.889619	-43.796445	-17.889619	-43.796445	-0.443681	-143.672691
8.600000	-0.444247	-144.651596	-17.832783	-44.464828	-17.832783	-44.464828	-0.449861	-144.440750
8.650000	-0.450297	-145.386236	-17.775666	-45.135464	-17.775666	-45.135464	-0.456123	-145.209970
8.700000	-0.456425	-146.121309	-17.718271	-45.808423	-17.718271	-45.808423	-0.462469	-145.980412
8.750000	-0.462632	-146.856859	-17.660598	-46.483778	-17.660598	-46.483778	-0.468900	-146.752136
8.800000	-0.468923	-147.592957	-17.602617	-47.161705	-17.602617	-47.161705	-0.475419	-147.525264
8.850000	-0.475294	-148.329629	-17.544359	-47.842170	-17.544359	-47.842170	-0.482025	-148.299804
8.900000	-0.481748	-149.066920	-17.485824	-48.525236	-17.485824	-48.525236	-0.488720	-149.075817
8.950000	-0.488285	-149.804876	-17.427012	-49.210967	-17.427012	-49.210967	-0.495503	-149.853369
9.000000	-0.494905	-150.543546	-17.367924	-49.899425	-17.367924	-49.899425	-0.502375	-150.632523
9.050000	-0.501610	-151.282976	-17.308561	-50.590671	-17.308561	-50.590671	-0.509339	-151.413344
9.100000	-0.508401	-152.023213	-17.248923	-51.284765	-17.248923	-51.284765	-0.516396	-152.195900
9.150000	-0.515279	-152.764306	-17.189010	-51.981765	-17.189010	-51.981765	-0.523545	-152.980256
9.200000	-0.522244	-153.506303	-17.128823	-52.681727	-17.128823	-52.681727	-0.530789	-153.766482
9.250000	-0.529299	-154.249254	-17.068361	-53.384709	-17.068361	-53.384709	-0.538128	-154.554644
9.300000	-0.536442	-154.993206	-17.007625	-54.090764	-17.007625	-54.090764	-0.545564	-155.344814
9.350000	-0.543677	-155.738210	-16.946613	-54.799948	-16.946613	-54.799948	-0.553098	-156.137061
9.400000	-0.551003	-156.484315	-16.885326	-55.512316	-16.885326	-55.512316	-0.560730	-156.931457
9.450000	-0.558421	-157.231572	-16.823763	-56.227920	-16.823763	-56.227920	-0.568463	-157.728074
9.500000	-0.565933	-157.980031	-16.761922	-56.946816	-16.761922	-56.946816	-0.576297	-158.526985
9.550000	-0.573540	-158.729744	-16.699802	-57.669057	-16.699802	-57.669057	-0.584234	-159.328264
9.600000	-0.581242	-159.480761	-16.637402	-58.394697	-16.637402	-58.394697	-0.592274	-160.131985
9.650000	-0.589041	-160.233136	-16.574719	-59.123791	-16.574719	-59.123791	-0.600420	-160.938226
9.700000	-0.596938	-160.986919	-16.511752	-59.856395	-16.511752	-59.856395	-0.608671	-161.747062
9.750000	-0.604933	-161.742164	-16.448498	-60.592566	-16.448498	-60.592566	-0.617030	-162.558572
9.800000	-0.613029	-162.498923	-16.384954	-61.332361	-16.384954	-61.332361	-0.625497	-163.372833
9.850000	-0.621224	-163.257251	-16.321117	-62.075840	-16.321117	-62.075840	-0.634074	-164.189927
9.900000	-0.629522	-164.017200	-16.256984	-62.823065	-16.256984	-62.823065	-0.642762	-165.009933
9.950000	-0.637922	-164.778826	-16.192550	-63.574098	-16.192550	-63.574098	-0.651562	-165.832934
10.000000	-0.646427	-165.542183	-16.127812	-64.329006	-16.127812	-64.329006	-0.660476	-166.659012
