! freq	dB(S11)	phase(S11)	dB(S12)	phase(S12)	
!     	dB(S21)	phase(S21)	dB(S22)	phase(S22)	
!S-par simulation data
#  GHz  S  DB  R 50
0.000000	-0.000000	0.000000	-338.923637	0.000000	-338.923637	0.000000	-0.000000	0.000000
0.050000	-0.000101	-0.798363	-71.229774	87.337082	-71.229774	87.337082	-0.000105	-0.843000
0.100000	-0.000399	-1.596483	-65.415584	86.371977	-65.415584	86.371977	-0.000415	-1.685750
0.150000	-0.000882	-2.394137	-62.000695	85.856573	-62.000695	85.856573	-0.000919	-2.528016
0.200000	-0.001531	-3.191139	-59.557136	85.335801	-59.557136	85.335801	-0.001597	-3.369603
0.250000	-0.002334	-3.987278	-57.651173	84.748313	-57.651173	84.748313	-0.002436	-4.210291
0.300000	-0.003253	-4.782516	-56.089241	84.110329	-56.089241	84.110329	-0.003399	-5.050035
0.350000	-0.004271	-5.576743	-54.766815	83.433395	-54.766815	83.433395	-0.004467	-5.888713
0.400000	-0.005365	-6.369913	-53.620930	82.728802	-53.620930	82.728802	-0.005618	-6.726274
0.450000	-0.006514	-7.162013	-52.610642	82.004449	-52.610642	82.004449	-0.006828	-7.562696
0.500000	-0.007700	-7.953048	-51.707825	81.265780	-51.707825	81.265780	-0.008080	-8.397979
0.550000	-0.008908	-8.743040	-50.892321	80.516606	-50.892321	80.516606	-0.009357	-9.232141
0.600000	-0.010126	-9.532019	-50.149192	79.759650	-50.149192	79.759650	-0.010646	-10.065208
0.650000	-0.011344	-10.320018	-49.467062	78.996910	-49.467062	78.996910	-0.011937	-10.897213
0.700000	-0.012557	-11.107074	-48.837067	78.229884	-48.837067	78.229884	-0.013223	-11.728187
0.750000	-0.013758	-11.893216	-48.252168	77.459722	-48.252168	77.459722	-0.014498	-12.558164
0.800000	-0.014945	-12.678473	-47.706680	76.687329	-47.706680	76.687329	-0.015758	-13.387168
0.850000	-0.016117	-13.462868	-47.195950	75.913427	-47.195950	75.913427	-0.017002	-14.215224
0.900000	-0.017272	-14.246416	-46.716115	75.138609	-46.716115	75.138609	-0.018229	-15.042348
0.950000	-0.018411	-15.029131	-46.263940	74.363366	-46.263940	74.363366	-0.019438	-15.868551
1.000000	-0.019534	-15.811018	-45.836683	73.588114	-45.836683	73.588114	-0.020630	-16.693841
1.050000	-0.020641	-16.592080	-45.432002	72.813212	-45.432002	72.813212	-0.021805	-17.518218
1.100000	-0.021735	-17.372315	-45.047882	72.038972	-45.047882	72.038972	-0.022965	-18.341679
1.150000	-0.022816	-18.151716	-44.682573	71.265671	-44.682573	71.265671	-0.024111	-19.164220
1.200000	-0.023886	-18.930275	-44.334551	70.493558	-44.334551	70.493558	-0.025244	-19.985829
1.250000	-0.024946	-19.707981	-44.002473	69.722859	-44.002473	69.722859	-0.026365	-20.806494
1.300000	-0.025996	-20.484782	-43.685271	68.953860	-43.685271	68.953860	-0.027476	-21.626159
1.350000	-0.027038	-21.260699	-43.381779	68.186691	-43.381779	68.186691	-0.028578	-22.444846
1.400000	-0.028074	-22.035717	-43.091061	67.421530	-43.091061	67.421530	-0.029672	-23.262540
1.450000	-0.029104	-22.809818	-42.812278	66.658545	-42.812278	66.658545	-0.030760	-24.079219
1.500000	-0.030128	-23.582983	-42.544676	65.897898	-42.544676	65.897898	-0.031841	-24.894864
1.550000	-0.031149	-24.355193	-42.287573	65.139741	-42.287573	65.139741	-0.032918	-25.709454
1.600000	-0.032166	-25.126430	-42.040353	64.384222	-42.040353	64.384222	-0.033991	-26.522968
1.650000	-0.033181	-25.896673	-41.802456	63.631485	-41.802456	63.631485	-0.035061	-27.335385
1.700000	-0.034192	-26.665542	-41.574253	62.882748	-41.574253	62.882748	-0.036127	-28.146284
1.750000	-0.035203	-27.433875	-41.353166	62.135581	-41.353166	62.135581	-0.037192	-28.956591
1.800000	-0.036213	-28.200917	-41.140564	61.392360	-41.140564	61.392360	-0.038256	-29.765474
1.850000	-0.037222	-28.967037	-40.935134	60.651958	-40.935134	60.651958	-0.039318	-30.573338
1.900000	-0.038230	-29.732008	-40.736992	59.915216	-40.736992	59.915216	-0.040380	-31.379934
1.950000	-0.039238	-30.495831	-40.545756	59.182135	-40.545756	59.182135	-0.041442	-32.185263
2.000000	-0.040247	-31.258661	-40.360733	58.452331	-40.360733	58.452331	-0.042504	-32.989498
2.050000	-0.041257	-32.020104	-40.182440	57.727114	-40.182440	57.727114	-0.043567	-33.792202
2.100000	-0.042267	-32.780934	-40.008967	57.003974	-40.008967	57.003974	-0.044631	-34.594232
2.150000	-0.043279	-33.540177	-39.842027	56.286249	-39.842027	56.286249	-0.045696	-35.394511
2.200000	-0.044293	-34.298217	-39.680556	55.572706	-39.680556	55.572706	-0.046763	-36.193466
2.250000	-0.045308	-35.055038	-39.524334	54.863461	-39.524334	54.863461	-0.047832	-36.991077
2.300000	-0.046325	-35.810622	-39.373156	54.158635	-39.373156	54.158635	-0.048904	-37.787328
2.350000	-0.047346	-36.564953	-39.226827	53.458344	-39.226827	53.458344	-0.049978	-38.582199
2.400000	-0.048368	-37.318014	-39.085166	52.762707	-39.085166	52.762707	-0.051055	-39.375673
2.450000	-0.049394	-38.069789	-38.948003	52.071839	-38.948003	52.071839	-0.052135	-40.167735
2.500000	-0.050423	-38.820263	-38.815173	51.385858	-38.815173	51.385858	-0.053219	-40.958366
2.550000	-0.051456	-39.569363	-38.686621	50.705103	-38.686621	50.705103	-0.054307	-41.747488
2.600000	-0.052493	-40.317130	-38.562102	50.029476	-38.562102	50.029476	-0.055399	-42.535148
2.650000	-0.053534	-41.063550	-38.441479	49.359093	-38.441479	49.359093	-0.056496	-43.321329
2.700000	-0.054580	-41.808609	-38.324621	48.694071	-38.324621	48.694071	-0.057598	-44.106019
2.750000	-0.055630	-42.552293	-38.211402	48.034522	-38.211402	48.034522	-0.058705	-44.889202
2.800000	-0.056686	-43.294589	-38.101703	47.380563	-38.101703	47.380563	-0.059817	-45.670865
2.850000	-0.057747	-44.035484	-37.995411	46.732308	-37.995411	46.732308	-0.060935	-46.450995
2.900000	-0.058814	-44.774965	-37.892415	46.089870	-37.892415	46.089870	-0.062060	-47.229579
2.950000	-0.059886	-45.513020	-37.792612	45.453365	-37.792612	45.453365	-0.063191	-48.006605
3.000000	-0.060966	-46.249638	-37.695901	44.822906	-37.695901	44.822906	-0.064329	-48.782061
3.050000	-0.062052	-46.984807	-37.602185	44.198606	-37.602185	44.198606	-0.065474	-49.555937
3.100000	-0.063145	-47.718516	-37.511372	43.580579	-37.511372	43.580579	-0.066627	-50.328220
3.150000	-0.064246	-48.450754	-37.423372	42.968938	-37.423372	42.968938	-0.067788	-51.098901
3.200000	-0.065354	-49.181511	-37.338099	42.363795	-37.338099	42.363795	-0.068957	-51.867970
3.250000	-0.066471	-49.910777	-37.255468	41.765262	-37.255468	41.765262	-0.070136	-52.635417
3.300000	-0.067596	-50.638543	-37.175399	41.173452	-37.175399	41.173452	-0.071323	-53.401234
3.350000	-0.068732	-51.364534	-37.098113	40.589698	-37.098113	40.589698	-0.072522	-54.165124
3.400000	-0.069877	-52.088940	-37.023303	40.013193	-37.023303	40.013193	-0.073731	-54.927294
3.450000	-0.071028	-52.812547	-36.950003	39.440414	-36.950003	39.440414	-0.074946	-55.688599
3.500000	-0.072194	-53.533754	-36.879913	38.878810	-36.879913	38.878810	-0.076177	-56.447304
3.550000	-0.073364	-54.254423	-36.810940	38.319769	-36.810940	38.319769	-0.077413	-57.205427
3.600000	-0.074552	-54.972399	-36.745273	37.773541	-36.745273	37.773541	-0.078668	-57.960639
3.650000	-0.075743	-55.690103	-36.680364	37.228633	-36.680364	37.228633	-0.079926	-58.715557
3.700000	-0.076955	-56.404817	-36.618836	36.698247	-36.618836	36.698247	-0.081207	-59.467251
3.750000	-0.078168	-57.119532	-36.557740	36.167862	-36.557740	36.167862	-0.082489	-60.218944
3.800000	-0.079406	-57.830960	-36.500075	35.653777	-36.500075	35.653777	-0.083798	-60.967098
3.850000	-0.080644	-58.542389	-36.442790	35.139692	-36.442790	35.139692	-0.085107	-61.715253
3.900000	-0.081907	-59.250784	-36.388481	34.640958	-36.388481	34.640958	-0.086443	-62.460149
3.950000	-0.083173	-59.958903	-36.334745	34.143619	-36.334745	34.143619	-0.087781	-63.204748
4.000000	-0.084462	-60.664249	-36.283560	33.660597	-36.283560	33.660597	-0.089146	-63.946375
4.050000	-0.085757	-61.369041	-36.233117	33.180437	-36.233117	33.180437	-0.090515	-64.687408
4.100000	-0.087075	-62.071325	-36.184829	32.713472	-36.184829	32.713472	-0.091910	-65.425759
4.150000	-0.088400	-62.772773	-36.137426	32.250906	-36.137426	32.250906	-0.093313	-66.163215
4.200000	-0.089747	-63.471985	-36.091812	31.800331	-36.091812	31.800331	-0.094739	-66.898286
4.250000	-0.091105	-64.170078	-36.047199	31.355751	-36.047199	31.355751	-0.096177	-67.632163
4.300000	-0.092483	-64.866209	-36.004041	30.921879	-36.004041	30.921879	-0.097636	-68.363952
4.350000	-0.093875	-65.560938	-35.961969	30.495654	-35.961969	30.495654	-0.099111	-69.094249
4.400000	-0.095285	-66.253982	-35.921052	30.078777	-35.921052	30.078777	-0.100605	-69.822758
4.450000	-0.096714	-66.945342	-35.881273	29.671247	-35.881273	29.671247	-0.102118	-70.549478
4.500000	-0.098157	-67.635297	-35.842381	29.271632	-35.842381	29.271632	-0.103649	-71.274712
4.550000	-0.099623	-68.323285	-35.804645	28.883098	-35.804645	28.883098	-0.105203	-71.997863
4.600000	-0.101102	-69.010149	-35.767566	28.500985	-35.767566	28.500985	-0.106771	-72.719828
4.650000	-0.102607	-69.694767	-35.731624	28.131710	-35.731624	28.131710	-0.108367	-73.439421
4.700000	-0.104123	-70.378543	-35.696144	27.767304	-35.696144	27.767304	-0.109974	-74.158127
4.750000	-0.105669	-71.059794	-35.661743	27.417502	-35.661743	27.417502	-0.111614	-74.874176
4.800000	-0.107223	-71.740485	-35.627649	27.070972	-35.627649	27.070972	-0.113263	-75.589638
4.850000	-0.108812	-72.418378	-35.594535	26.740801	-35.594535	26.740801	-0.114949	-76.302161
4.900000	-0.110405	-73.095991	-35.561612	26.412274	-35.561612	26.412274	-0.116639	-77.014393
4.950000	-0.112038	-73.770534	-35.529527	26.101828	-35.529527	26.101828	-0.118373	-77.723412
5.000000	-0.113672	-74.445078	-35.497561	25.791382	-35.497561	25.791382	-0.120107	-78.432432
5.050000	-0.115352	-75.116286	-35.466246	25.500683	-35.466246	25.500683	-0.121891	-79.137973
5.100000	-0.117032	-75.787494	-35.435044	25.209985	-35.435044	25.209985	-0.123675	-79.843513
5.150000	-0.118756	-76.455659	-35.404212	24.937335	-35.404212	24.937335	-0.125505	-80.545892
5.200000	-0.120484	-77.123548	-35.373514	24.666326	-35.373514	24.666326	-0.127341	-81.247982
5.250000	-0.122253	-77.788687	-35.342944	24.411601	-35.342944	24.411601	-0.129220	-81.947224
5.300000	-0.124030	-78.453275	-35.312487	24.160132	-35.312487	24.160132	-0.131108	-82.645897
5.350000	-0.125846	-79.115405	-35.281958	23.923134	-35.281958	23.923134	-0.133037	-83.342031
5.400000	-0.127675	-79.776716	-35.251478	23.690958	-35.251478	23.690958	-0.134980	-84.037320
5.450000	-0.129539	-80.435857	-35.220769	23.471407	-35.220769	23.471407	-0.136961	-84.730379
5.500000	-0.131421	-81.093914	-35.190001	23.258168	-35.190001	23.258168	-0.138961	-85.422322
5.550000	-0.133334	-81.750089	-35.158892	23.055701	-35.158892	23.055701	-0.140995	-86.112338
5.600000	-0.135271	-82.404919	-35.127573	22.860926	-35.127573	22.860926	-0.143053	-86.800977
5.650000	-0.137235	-83.058151	-35.095846	22.675086	-35.095846	22.675086	-0.145141	-87.487986
5.700000	-0.139228	-83.709785	-35.063716	22.498180	-35.063716	22.498180	-0.147259	-88.173365
5.750000	-0.141245	-84.360100	-35.031157	22.328416	-35.031157	22.328416	-0.149403	-88.857405
5.800000	-0.143295	-85.008569	-34.997957	22.168652	-34.997957	22.168652	-0.151583	-89.539571
5.850000	-0.145365	-85.655995	-34.964358	22.014314	-34.964358	22.014314	-0.153784	-90.220682
5.900000	-0.147475	-86.301335	-34.929839	21.870831	-34.929839	21.870831	-0.156027	-90.899684
5.950000	-0.149601	-86.945901	-34.894996	21.731168	-34.894996	21.731168	-0.158287	-91.577909
6.000000	-0.151772	-87.588149	-34.858916	21.602968	-34.858916	21.602968	-0.160595	-92.253800
6.050000	-0.153954	-88.229887	-34.822635	21.477127	-34.822635	21.477127	-0.162915	-92.929182
6.100000	-0.156188	-88.869081	-34.784763	21.363077	-34.784763	21.363077	-0.165290	-93.602017
6.150000	-0.158427	-89.508024	-34.746860	21.250100	-34.746860	21.250100	-0.167672	-94.274602
6.200000	-0.160725	-90.144207	-34.706980	21.148933	-34.706980	21.148933	-0.170115	-94.944439
6.250000	-0.163024	-90.780390	-34.667282	21.047767	-34.667282	21.047767	-0.172559	-95.614277
6.300000	-0.165388	-91.413605	-34.625194	20.958090	-34.625194	20.958090	-0.175073	-96.281176
6.350000	-0.167753	-92.046820	-34.583309	20.868413	-34.583309	20.868413	-0.177587	-96.948075
6.400000	-0.170179	-92.677357	-34.539066	20.787886	-34.539066	20.787886	-0.180166	-97.612338
6.450000	-0.172611	-93.307650	-34.494817	20.708189	-34.494817	20.708189	-0.182752	-98.276362
6.500000	-0.175100	-93.935549	-34.448296	20.635466	-34.448296	20.635466	-0.185398	-98.938043
6.550000	-0.177602	-94.562969	-34.401527	20.564137	-34.401527	20.564137	-0.188058	-99.599257
6.600000	-0.180155	-95.188271	-34.352624	20.497809	-34.352624	20.497809	-0.190772	-100.258413
6.650000	-0.182727	-95.812867	-34.303205	20.433147	-34.303205	20.433147	-0.193506	-100.916883
6.700000	-0.185347	-96.435616	-34.251836	20.371752	-34.251836	20.371752	-0.196291	-101.573571
6.750000	-0.187991	-97.057440	-34.199663	20.311991	-34.199663	20.311991	-0.199101	-102.229368
6.800000	-0.190678	-97.677680	-34.145768	20.254031	-34.145768	20.254031	-0.201957	-102.883648
6.850000	-0.193395	-98.296786	-34.090764	20.197357	-34.090764	20.197357	-0.204845	-103.536843
6.900000	-0.196150	-98.914562	-34.034305	20.141311	-34.034305	20.141311	-0.207773	-104.188775
6.950000	-0.198943	-99.531006	-33.976423	20.085892	-33.976423	20.085892	-0.210740	-104.839443
7.000000	-0.201768	-100.146365	-33.917385	20.030234	-33.917385	20.030234	-0.213742	-105.489089
7.050000	-0.204637	-100.760205	-33.856608	19.974241	-33.856608	19.974241	-0.216790	-106.137305
7.100000	-0.207533	-101.373196	-33.795000	19.917457	-33.795000	19.917457	-0.219867	-106.784730
7.150000	-0.210480	-101.984490	-33.731339	19.859092	-33.731339	19.859092	-0.222997	-107.430573
7.200000	-0.213448	-102.595163	-33.667192	19.799698	-33.667192	19.799698	-0.226150	-108.075842
7.250000	-0.216474	-103.203973	-33.600688	19.737219	-33.600688	19.737219	-0.229364	-108.719392
7.300000	-0.219515	-103.812379	-33.534055	19.673777	-33.534055	19.673777	-0.232594	-109.362573
7.350000	-0.222623	-104.418766	-33.464776	19.605522	-33.464776	19.605522	-0.235894	-110.003911
7.400000	-0.225738	-105.024957	-33.395729	19.536656	-33.395729	19.536656	-0.239202	-110.645072
7.450000	-0.228928	-105.628986	-33.323769	19.461067	-33.323769	19.461067	-0.242589	-111.284283
7.500000	-0.232119	-106.233015	-33.252400	19.385478	-33.252400	19.385478	-0.245977	-111.923494
7.550000	-0.235393	-106.834753	-33.177875	19.301119	-33.177875	19.301119	-0.249451	-112.560664
7.600000	-0.238668	-107.436490	-33.103984	19.216761	-33.103984	19.216761	-0.252927	-113.197835
7.650000	-0.242019	-108.036187	-33.027340	19.123175	-33.027340	19.123175	-0.256484	-113.833214
7.700000	-0.245379	-108.635700	-32.951063	19.028750	-32.951063	19.028750	-0.260049	-114.468431
7.750000	-0.248810	-109.233415	-32.872442	18.924984	-32.872442	18.924984	-0.263689	-115.102095
7.800000	-0.252256	-109.830771	-32.793931	18.819349	-32.793931	18.819349	-0.267345	-115.735448
7.850000	-0.255767	-110.426563	-32.713484	18.704571	-32.713484	18.704571	-0.271069	-116.367473
7.900000	-0.259301	-111.021834	-32.632904	18.586746	-32.632904	18.586746	-0.274817	-116.999054
7.950000	-0.262893	-111.615762	-32.550789	18.460250	-32.550789	18.460250	-0.278627	-117.629517
8.000000	-0.266515	-112.209018	-32.468316	18.329419	-32.468316	18.329419	-0.282468	-118.259420
8.050000	-0.270190	-112.801143	-32.384695	18.190625	-32.384695	18.190625	-0.286364	-118.888400
8.100000	-0.273903	-113.392459	-32.300512	18.046144	-32.300512	18.046144	-0.290300	-119.516721
8.150000	-0.277661	-113.982842	-32.215549	17.894600	-32.215549	17.894600	-0.294284	-120.144298
8.200000	-0.281465	-114.572293	-32.129839	17.735992	-32.129839	17.735992	-0.298315	-120.771133
8.250000	-0.285307	-115.160998	-32.043700	17.571367	-32.043700	17.571367	-0.302387	-121.397389
8.300000	-0.289204	-115.748659	-31.956648	17.398317	-31.956648	17.398317	-0.306516	-122.022837
8.350000	-0.293132	-116.335749	-31.869492	17.220402	-31.869492	17.220402	-0.310677	-122.647856
8.400000	-0.297121	-116.921698	-31.781282	17.032754	-31.781282	17.032754	-0.314903	-123.272018
8.450000	-0.301136	-117.507239	-31.693265	16.841453	-31.693265	16.841453	-0.319155	-123.895885
8.500000	-0.305220	-118.091555	-31.604072	16.639194	-31.604072	16.639194	-0.323480	-124.518863
8.550000	-0.309321	-118.675613	-31.515345	16.434519	-31.515345	16.434519	-0.327823	-125.141662
8.600000	-0.313501	-119.258377	-31.425338	16.217771	-31.425338	16.217771	-0.332248	-125.763563
8.650000	-0.317691	-119.841019	-31.336044	15.999836	-31.336044	15.999836	-0.336683	-126.385382
8.700000	-0.321967	-120.422313	-31.245380	15.768844	-31.245380	15.768844	-0.341209	-127.006310
8.750000	-0.326245	-121.003608	-31.155652	15.537851	-31.155652	15.537851	-0.345737	-127.627239
8.800000	-0.330619	-121.583515	-31.064478	15.292968	-31.064478	15.292968	-0.350365	-128.247303
8.850000	-0.334995	-122.163423	-30.974251	15.048084	-30.974251	15.048084	-0.354995	-128.867368
8.900000	-0.339460	-122.742137	-30.882890	14.790877	-30.882890	14.790877	-0.359717	-129.486742
8.950000	-0.343934	-123.320743	-30.792295	14.532550	-30.792295	14.532550	-0.364450	-130.106054
9.000000	-0.348490	-123.898336	-30.700848	14.263461	-30.700848	14.263461	-0.369267	-130.724831
9.050000	-0.353063	-124.475726	-30.610000	13.992218	-30.610000	13.992218	-0.374103	-131.343502
9.100000	-0.357711	-125.052271	-30.518557	13.711736	-30.518557	13.711736	-0.379016	-131.961777
9.150000	-0.362384	-125.628534	-30.427560	13.428173	-30.427560	13.428173	-0.383956	-132.579921
9.200000	-0.367124	-126.204106	-30.336196	13.136829	-30.336196	13.136829	-0.388966	-133.197792
9.250000	-0.371899	-126.779331	-30.245136	12.841594	-30.245136	12.841594	-0.394011	-133.815526
9.300000	-0.376732	-127.354004	-30.153917	12.539952	-30.153917	12.539952	-0.399117	-134.433090
9.350000	-0.381608	-127.928282	-30.062866	12.233735	-30.062866	12.233735	-0.404268	-135.050532
9.400000	-0.386534	-128.502133	-29.971843	11.922385	-29.971843	11.922385	-0.409471	-135.667888
9.450000	-0.391512	-129.075557	-29.880857	11.605903	-29.880857	11.605903	-0.414728	-136.285160
9.500000	-0.396533	-129.648665	-29.790070	11.285451	-29.790070	11.285451	-0.420029	-136.902411
9.550000	-0.401613	-130.221329	-29.699190	10.959440	-29.699190	10.959440	-0.425392	-137.519634
9.600000	-0.406728	-130.793771	-29.608667	10.630502	-29.608667	10.630502	-0.430792	-138.136883
9.650000	-0.411911	-131.365771	-29.517920	10.295708	-29.517920	10.295708	-0.436261	-138.754183
9.700000	-0.417121	-131.937629	-29.427678	9.958904	-29.427678	9.958904	-0.441759	-139.371534
9.750000	-0.422407	-132.509062	-29.337075	9.616070	-29.337075	9.616070	-0.447335	-139.989039
9.800000	-0.427713	-133.080417	-29.247120	9.272018	-29.247120	9.272018	-0.452931	-140.606599
9.850000	-0.433102	-133.651383	-29.156659	8.921878	-29.156659	8.921878	-0.458615	-141.224437
9.900000	-0.438503	-134.222318	-29.066985	8.571190	-29.066985	8.571190	-0.464310	-141.842315
9.950000	-0.443996	-134.792918	-28.976649	8.214465	-28.976649	8.214465	-0.470100	-142.460620
10.000000	-0.449493	-135.363517	-28.887244	7.857740	-28.887244	7.857740	-0.475893	-143.078925
