! freq	dB(S11)	phase(S11)	dB(S12)	phase(S12)	
!     	dB(S21)	phase(S21)	dB(S22)	phase(S22)	
!S-par simulation data
#  GHz  S  DB  R 50
0.000000	-0.000000	-0.000000	-343.946664	180.000000	-343.946664	180.000000	-0.000000	-0.000000
0.050000	-0.000119	-0.961344	-63.827738	88.950773	-63.827738	88.950773	-0.000119	-0.961363
0.100000	-0.000470	-1.922400	-57.812844	87.907638	-57.812844	87.907638	-0.000470	-1.922439
0.150000	-0.001042	-2.882900	-54.299904	86.875456	-54.299904	86.875456	-0.001042	-2.882958
0.200000	-0.001813	-3.842619	-51.812404	85.857041	-51.812404	85.857041	-0.001813	-3.842696
0.250000	-0.002769	-4.801293	-49.887599	84.854393	-49.887599	84.854393	-0.002769	-4.801390
0.300000	-0.003870	-5.758862	-48.318180	83.865574	-48.318180	83.865574	-0.003870	-5.758978
0.350000	-0.005094	-6.715175	-46.994107	82.889773	-46.994107	82.889773	-0.005094	-6.715311
0.400000	-0.006416	-7.670158	-45.849467	81.925093	-45.849467	81.925093	-0.006416	-7.670313
0.450000	-0.007812	-8.623770	-44.841759	80.969559	-44.841759	80.969559	-0.007812	-8.623944
0.500000	-0.009260	-9.575996	-43.941999	80.021350	-43.941999	80.021350	-0.009260	-9.576190
0.550000	-0.010742	-10.526841	-43.129561	79.078911	-43.129561	79.078911	-0.010742	-10.527054
0.600000	-0.012243	-11.476321	-42.389249	78.140981	-42.389249	78.140981	-0.012243	-11.476552
0.650000	-0.013750	-12.424459	-41.709555	77.206582	-41.709555	77.206582	-0.013750	-12.424710
0.700000	-0.015255	-13.371282	-41.081555	76.274979	-41.081555	76.274979	-0.015255	-13.371551
0.750000	-0.016750	-14.316813	-40.498192	75.345636	-40.498192	75.345636	-0.016751	-14.317102
0.800000	-0.018232	-15.261075	-39.953786	74.418176	-39.953786	74.418176	-0.018233	-15.261383
0.850000	-0.019698	-16.204085	-39.443697	73.492347	-39.443697	73.492347	-0.019698	-16.204410
0.900000	-0.021145	-17.145852	-38.964086	72.567989	-38.964086	72.567989	-0.021146	-17.146197
0.950000	-0.022574	-18.086383	-38.511742	71.645012	-38.511742	71.645012	-0.022575	-18.086746
1.000000	-0.023984	-19.025678	-38.083945	70.723381	-38.083945	70.723381	-0.023985	-19.026060
1.050000	-0.025376	-19.963732	-37.678377	69.803099	-37.678377	69.803099	-0.025377	-19.964132
1.100000	-0.026752	-20.900534	-37.293041	68.884195	-37.293041	68.884195	-0.026753	-20.900953
1.150000	-0.028112	-21.836071	-36.926207	67.966722	-36.926207	67.966722	-0.028113	-21.836508
1.200000	-0.029458	-22.770325	-36.576365	67.050746	-36.576365	67.050746	-0.029459	-22.770780
1.250000	-0.030791	-23.703276	-36.242188	66.136342	-36.242188	66.136342	-0.030792	-23.703749
1.300000	-0.032113	-24.634841	-35.922599	65.223670	-35.922599	65.223670	-0.032114	-24.635333
1.350000	-0.033424	-25.565053	-35.616464	64.312750	-35.616464	64.312750	-0.033425	-25.565562
1.400000	-0.034727	-26.493883	-35.322853	63.403675	-35.322853	63.403675	-0.034728	-26.494411
1.450000	-0.036023	-27.421305	-35.040937	62.496535	-35.040937	62.496535	-0.036024	-27.421851
1.500000	-0.037312	-28.347290	-34.769966	61.591425	-34.769966	61.591425	-0.037314	-28.347853
1.550000	-0.038597	-29.271808	-34.509266	60.688437	-34.509266	60.688437	-0.038598	-29.272389
1.600000	-0.039876	-30.194830	-34.258225	59.787665	-34.258225	59.787665	-0.039878	-30.195429
1.650000	-0.041153	-31.116326	-34.016285	58.889199	-34.016285	58.889199	-0.041154	-31.116942
1.700000	-0.042426	-32.036267	-33.782939	57.993131	-33.782939	57.993131	-0.042428	-32.036900
1.750000	-0.043698	-32.954622	-33.557722	57.099548	-33.557722	57.099548	-0.043699	-32.955273
1.800000	-0.044968	-33.871362	-33.340207	56.208539	-33.340207	56.208539	-0.044969	-33.872031
1.850000	-0.046237	-34.786460	-33.130002	55.320190	-33.130002	55.320190	-0.046238	-34.787145
1.900000	-0.047505	-35.699886	-32.926745	54.434585	-32.926745	54.434585	-0.047507	-35.700588
1.950000	-0.048774	-36.611612	-32.730102	53.551806	-32.730102	53.551806	-0.048775	-36.612332
2.000000	-0.050043	-37.521612	-32.539761	52.671936	-32.539761	52.671936	-0.050044	-37.522349
2.050000	-0.051313	-38.429859	-32.355436	51.795053	-32.355436	51.795053	-0.051314	-38.430612
2.100000	-0.052584	-39.336326	-32.176856	50.921234	-32.176856	50.921234	-0.052586	-39.337096
2.150000	-0.053856	-40.240989	-32.003773	50.050557	-32.003773	50.050557	-0.053858	-40.241776
2.200000	-0.055131	-41.143824	-31.835952	49.183095	-31.835952	49.183095	-0.055133	-41.144627
2.250000	-0.056408	-42.044805	-31.673174	48.318921	-31.673174	48.318921	-0.056410	-42.045625
2.300000	-0.057687	-42.943912	-31.515235	47.458106	-31.515235	47.458106	-0.057689	-42.944748
2.350000	-0.058969	-43.841120	-31.361940	46.600719	-31.361940	46.600719	-0.058971	-43.841973
2.400000	-0.060255	-44.736410	-31.213108	45.746828	-31.213108	45.746828	-0.060257	-44.737279
2.450000	-0.061543	-45.629759	-31.068568	44.896500	-31.068568	44.896500	-0.061545	-45.630644
2.500000	-0.062836	-46.521149	-30.928158	44.049798	-30.928158	44.049798	-0.062838	-46.522050
2.550000	-0.064132	-47.410474	-30.791801	43.206949	-30.791801	43.206949	-0.064134	-47.411391
2.600000	-0.065433	-48.297799	-30.659274	42.367856	-30.659274	42.367856	-0.065436	-48.298733
2.650000	-0.066739	-49.183109	-30.530441	41.532578	-30.530441	41.532578	-0.066741	-49.184058
2.700000	-0.068050	-50.066387	-30.405170	40.701174	-30.405170	40.701174	-0.068052	-50.067351
2.750000	-0.069366	-50.947616	-30.283336	39.873700	-30.283336	39.873700	-0.069368	-50.948596
2.800000	-0.070688	-51.826782	-30.164823	39.050210	-30.164823	39.050210	-0.070690	-51.827778
2.850000	-0.072016	-52.703870	-30.049517	38.230757	-30.049517	38.230757	-0.072018	-52.704881
2.900000	-0.073350	-53.578868	-29.937311	37.415392	-29.937311	37.415392	-0.073353	-53.579894
2.950000	-0.074691	-54.451761	-29.828102	36.604166	-29.828102	36.604166	-0.074694	-54.452803
3.000000	-0.076039	-55.322539	-29.721791	35.797127	-29.721791	35.797127	-0.076042	-55.323596
3.050000	-0.077395	-56.191191	-29.618284	34.994322	-29.618284	34.994322	-0.077398	-56.192262
3.100000	-0.078759	-57.057705	-29.517491	34.195795	-29.517491	34.195795	-0.078761	-57.058791
3.150000	-0.080131	-57.922072	-29.419325	33.401591	-29.419325	33.401591	-0.080133	-57.923173
3.200000	-0.081511	-58.784284	-29.323702	32.611751	-29.323702	32.611751	-0.081514	-58.785399
3.250000	-0.082901	-59.644331	-29.230543	31.826315	-29.230543	31.826315	-0.082903	-59.645462
3.300000	-0.084300	-60.502208	-29.139770	31.045323	-29.139770	31.045323	-0.084303	-60.503353
3.350000	-0.085709	-61.357907	-29.051308	30.268811	-29.051308	30.268811	-0.085712	-61.359066
3.400000	-0.087128	-62.211421	-28.965086	29.496816	-28.965086	29.496816	-0.087131	-62.212595
3.450000	-0.088559	-63.062747	-28.881034	28.729372	-28.881034	28.729372	-0.088562	-63.063935
3.500000	-0.090000	-63.911879	-28.799085	27.966510	-28.799085	27.966510	-0.090003	-63.913081
3.550000	-0.091453	-64.758814	-28.719174	27.208263	-28.719174	27.208263	-0.091456	-64.760030
3.600000	-0.092919	-65.603549	-28.641239	26.454659	-28.641239	26.454659	-0.092921	-65.604778
3.650000	-0.094396	-66.446080	-28.565218	25.705726	-28.565218	25.705726	-0.094399	-66.447324
3.700000	-0.095887	-67.286407	-28.491052	24.961490	-28.491052	24.961490	-0.095890	-67.287665
3.750000	-0.097391	-68.124528	-28.418685	24.221977	-28.418685	24.221977	-0.097394	-68.125800
3.800000	-0.098910	-68.960348	-28.348108	23.487417	-28.348108	23.487417	-0.098913	-68.961633
3.850000	-0.100444	-69.793962	-28.279217	22.757625	-28.279217	22.757625	-0.100447	-69.795261
3.900000	-0.101992	-70.625372	-28.211960	22.032621	-28.211960	22.032621	-0.101995	-70.626684
3.950000	-0.103555	-71.454580	-28.146284	21.312424	-28.146284	21.312424	-0.103558	-71.455905
4.000000	-0.105135	-72.281587	-28.082139	20.597051	-28.082139	20.597051	-0.105138	-72.282925
4.050000	-0.106730	-73.106397	-28.019478	19.886515	-28.019478	19.886515	-0.106734	-73.107749
4.100000	-0.108343	-73.929014	-27.958251	19.180830	-27.958251	19.180830	-0.108346	-73.930378
4.150000	-0.109972	-74.749442	-27.898414	18.480009	-27.898414	18.480009	-0.109976	-74.750819
4.200000	-0.111620	-75.567685	-27.839920	17.784061	-27.839920	17.784061	-0.111623	-75.569076
4.250000	-0.113286	-76.383750	-27.782726	17.092995	-27.782726	17.092995	-0.113289	-76.385153
4.300000	-0.114970	-77.197643	-27.726787	16.406818	-27.726787	16.406818	-0.114973	-77.199059
4.350000	-0.116673	-78.009370	-27.672061	15.725535	-27.672061	15.725535	-0.116677	-78.010798
4.400000	-0.118396	-78.818939	-27.618507	15.049150	-27.618507	15.049150	-0.118400	-78.820380
4.450000	-0.120139	-79.626357	-27.566085	14.377664	-27.566085	14.377664	-0.120143	-79.627810
4.500000	-0.121903	-80.431633	-27.514753	13.711079	-27.514753	13.711079	-0.121907	-80.433099
4.550000	-0.123688	-81.234777	-27.464472	13.049391	-27.464472	13.049391	-0.123692	-81.236256
4.600000	-0.125498	-82.035432	-27.415325	12.393449	-27.415325	12.393449	-0.125502	-82.036922
4.650000	-0.127331	-82.833882	-27.367181	11.742609	-27.367181	11.742609	-0.127335	-82.835385
4.700000	-0.129176	-83.631240	-27.319643	11.094313	-27.319643	11.094313	-0.129180	-83.632755
4.750000	-0.131057	-84.425321	-27.273382	10.453651	-27.273382	10.453651	-0.131060	-84.426848
4.800000	-0.132946	-85.218683	-27.227574	9.814677	-27.227574	9.814677	-0.132950	-85.220222
4.850000	-0.134876	-86.008448	-27.183042	9.184145	-27.183042	9.184145	-0.134880	-86.009999
4.900000	-0.136810	-86.797858	-27.138832	8.554451	-27.138832	8.554451	-0.136814	-86.799421
4.950000	-0.138792	-87.583363	-27.095881	7.933982	-27.095881	7.933982	-0.138796	-87.584938
5.000000	-0.140774	-88.368868	-27.053141	7.313514	-27.053141	7.313514	-0.140778	-88.370455
5.050000	-0.142809	-89.150175	-27.011626	6.703026	-27.011626	6.703026	-0.142814	-89.151774
5.100000	-0.144845	-89.931482	-26.970308	6.092539	-26.970308	6.092539	-0.144849	-89.933093
5.150000	-0.146931	-90.709002	-26.930013	5.491107	-26.930013	5.491107	-0.146936	-90.710624
5.200000	-0.149023	-91.486177	-26.889978	4.890498	-26.889978	4.890498	-0.149027	-91.487810
5.250000	-0.151162	-92.259967	-26.850783	4.298020	-26.850783	4.298020	-0.151166	-92.261612
5.300000	-0.153311	-93.033080	-26.811896	3.707167	-26.811896	3.707167	-0.153315	-93.034737
5.350000	-0.155504	-93.803202	-26.773688	3.123526	-26.773688	3.123526	-0.155508	-93.804870
5.400000	-0.157712	-94.572327	-26.735815	2.542287	-26.735815	2.542287	-0.157717	-94.574007
5.450000	-0.159961	-95.338846	-26.698481	1.967348	-26.698481	1.967348	-0.159966	-95.340538
5.500000	-0.162231	-96.104062	-26.661493	1.395559	-26.661493	1.395559	-0.162236	-96.105765
5.550000	-0.164538	-96.867046	-26.624924	0.829172	-26.624924	0.829172	-0.164543	-96.868760
5.600000	-0.166871	-97.628434	-26.588695	0.266645	-26.588695	0.266645	-0.166876	-97.630159
5.650000	-0.169237	-98.387952	-26.552785	-0.291358	-26.552785	-0.291358	-0.169242	-98.389689
5.700000	-0.171635	-99.145599	-26.517191	-0.844836	-26.517191	-0.844836	-0.171640	-99.147347
5.750000	-0.174062	-99.901724	-26.481837	-1.394642	-26.481837	-1.394642	-0.174067	-99.903483
5.800000	-0.176527	-100.655719	-26.446757	-1.939308	-26.446757	-1.939308	-0.176532	-100.657489
5.850000	-0.179016	-101.408527	-26.411856	-2.481124	-26.411856	-2.481124	-0.179021	-101.410309
5.900000	-0.181551	-102.158963	-26.377173	-3.017241	-26.377173	-3.017241	-0.181556	-102.160755
5.950000	-0.184103	-102.908532	-26.342629	-3.551294	-26.342629	-3.551294	-0.184108	-102.910336
6.000000	-0.186709	-103.655504	-26.308226	-4.079154	-26.308226	-4.079154	-0.186714	-103.657319
6.050000	-0.189327	-104.401916	-26.273942	-4.605691	-26.273942	-4.605691	-0.189332	-104.403742
6.100000	-0.192004	-105.145524	-26.239709	-5.125615	-26.239709	-5.125615	-0.192010	-105.147361
6.150000	-0.194689	-105.888860	-26.205594	-5.644907	-26.205594	-5.644907	-0.194695	-105.890708
6.200000	-0.197442	-106.629206	-26.171421	-6.157246	-26.171421	-6.157246	-0.197447	-106.631066
6.250000	-0.200195	-107.369553	-26.137383	-6.669584	-26.137383	-6.669584	-0.200200	-107.371423
6.300000	-0.203023	-108.106743	-26.103168	-7.174719	-26.103168	-7.174719	-0.203029	-108.108624
6.350000	-0.205853	-108.843933	-26.069086	-7.679853	-26.069086	-7.679853	-0.205858	-108.845826
6.400000	-0.208753	-109.578330	-26.034760	-8.178762	-26.034760	-8.178762	-0.208759	-109.580233
6.450000	-0.211660	-110.312472	-26.000534	-8.677105	-26.000534	-8.677105	-0.211666	-110.314387
6.500000	-0.214634	-111.044167	-25.966018	-9.170158	-25.966018	-9.170158	-0.214639	-111.046093
6.550000	-0.217621	-111.775373	-25.931553	-9.662154	-25.931553	-9.662154	-0.217627	-111.777309
6.600000	-0.220668	-112.504461	-25.896770	-10.149745	-25.896770	-10.149745	-0.220674	-112.506409
6.650000	-0.223737	-113.232844	-25.861974	-10.635869	-25.861974	-10.635869	-0.223743	-113.234803
6.700000	-0.226861	-113.959423	-25.826853	-11.118416	-25.826853	-11.118416	-0.226867	-113.961393
6.750000	-0.230012	-114.685099	-25.791641	-11.599174	-25.791641	-11.599174	-0.230018	-114.687080
6.800000	-0.233213	-115.409266	-25.756113	-12.077115	-25.756113	-12.077115	-0.233219	-115.411259
6.850000	-0.236450	-116.132355	-25.720404	-12.553044	-25.720404	-12.553044	-0.236456	-116.134359
6.900000	-0.239729	-116.854212	-25.684407	-13.026840	-25.684407	-13.026840	-0.239736	-116.856226
6.950000	-0.243052	-117.574835	-25.648127	-13.498503	-25.648127	-13.498503	-0.243058	-117.576861
7.000000	-0.246412	-118.294483	-25.611604	-13.968634	-25.611604	-13.968634	-0.246418	-118.296520
7.050000	-0.249823	-119.012765	-25.574686	-14.436620	-25.574686	-14.436620	-0.249829	-119.014813
7.100000	-0.253264	-119.730308	-25.537585	-14.903584	-25.537585	-14.903584	-0.253271	-119.732368
7.150000	-0.256765	-120.446375	-25.499968	-15.368506	-25.499968	-15.368506	-0.256771	-120.448446
7.200000	-0.260289	-121.161920	-25.462243	-15.832818	-25.462243	-15.832818	-0.260295	-121.164002
7.250000	-0.263880	-121.875900	-25.423875	-16.295305	-25.423875	-16.295305	-0.263887	-121.877994
7.300000	-0.267489	-122.589554	-25.385485	-16.757494	-25.385485	-16.757494	-0.267495	-122.591659
7.350000	-0.271173	-123.301579	-25.346322	-17.218191	-25.346322	-17.218191	-0.271180	-123.303696
7.400000	-0.274867	-124.013452	-25.307235	-17.678793	-25.307235	-17.678793	-0.274873	-124.015580
7.450000	-0.278645	-124.723655	-25.267240	-18.138353	-25.267240	-18.138353	-0.278652	-124.725795
7.500000	-0.282426	-125.433858	-25.227428	-18.597913	-25.227428	-18.597913	-0.282433	-125.436009
7.550000	-0.286300	-126.142374	-25.186575	-19.056994	-25.186575	-19.056994	-0.286307	-126.144538
7.600000	-0.290176	-126.850891	-25.145913	-19.516075	-25.145913	-19.516075	-0.290183	-126.853066
7.650000	-0.294140	-127.557988	-25.104289	-19.975315	-25.104289	-19.975315	-0.294147	-127.560175
7.700000	-0.298113	-128.264957	-25.062759	-20.434569	-25.062759	-20.434569	-0.298121	-128.267155
7.750000	-0.302168	-128.970751	-25.020359	-20.894505	-25.020359	-20.894505	-0.302175	-128.972962
7.800000	-0.306240	-129.676311	-24.977953	-21.354577	-24.977953	-21.354577	-0.306247	-129.678534
7.850000	-0.310386	-130.380921	-24.934779	-21.815732	-24.934779	-21.815732	-0.310393	-130.383156
7.900000	-0.314558	-131.085215	-24.891496	-22.277248	-24.891496	-22.277248	-0.314565	-131.087462
7.950000	-0.318797	-131.788761	-24.847557	-22.740129	-24.847557	-22.740129	-0.318804	-131.791021
8.000000	-0.323070	-132.491934	-24.803406	-23.203692	-24.803406	-23.203692	-0.323078	-132.494205
8.050000	-0.327403	-133.194537	-24.758717	-23.668783	-24.758717	-23.668783	-0.327411	-133.196821
8.100000	-0.331779	-133.896735	-24.713714	-24.134965	-24.713714	-24.134965	-0.331787	-133.899031
8.150000	-0.336207	-134.598519	-24.668294	-24.602724	-24.668294	-24.602724	-0.336215	-134.600828
8.200000	-0.340687	-135.299890	-24.622464	-25.072059	-24.622464	-25.072059	-0.340695	-135.302212
8.250000	-0.345211	-136.000981	-24.576339	-25.542912	-24.576339	-25.542912	-0.345219	-136.003315
8.300000	-0.349796	-136.701677	-24.529713	-26.015891	-24.529713	-26.015891	-0.349804	-136.704024
8.350000	-0.354417	-137.402200	-24.482913	-26.490231	-24.482913	-26.490231	-0.354425	-137.404559
8.400000	-0.359108	-138.102375	-24.435525	-26.967294	-24.435525	-26.967294	-0.359117	-138.104747
8.450000	-0.363828	-138.802458	-24.388085	-27.445476	-24.388085	-27.445476	-0.363836	-138.804844
8.500000	-0.368626	-139.502267	-24.339977	-27.927013	-24.339977	-27.927013	-0.368635	-139.504666
8.550000	-0.373445	-140.202041	-24.291932	-28.409351	-24.291932	-28.409351	-0.373453	-140.204454
8.600000	-0.378352	-140.901642	-24.243148	-28.895692	-24.243148	-28.895692	-0.378360	-140.904068
8.650000	-0.383270	-141.601239	-24.194538	-29.382457	-24.194538	-29.382457	-0.383279	-141.603678
8.700000	-0.388287	-142.300792	-24.145123	-29.873876	-24.145123	-29.873876	-0.388295	-142.303245
8.750000	-0.393306	-143.000345	-24.095988	-30.365295	-24.095988	-30.365295	-0.393315	-143.002812
8.800000	-0.398432	-143.700012	-24.045989	-30.862006	-24.045989	-30.862006	-0.398441	-143.702493
8.850000	-0.403562	-144.399680	-23.996277	-31.358717	-23.996277	-31.358717	-0.403571	-144.402175
8.900000	-0.408791	-145.099604	-23.945832	-31.860422	-23.945832	-31.860422	-0.408800	-145.102113
8.950000	-0.414032	-145.799551	-23.895587	-32.362581	-23.895587	-32.362581	-0.414041	-145.802074
9.000000	-0.419363	-146.499871	-23.844734	-32.869363	-23.844734	-32.869363	-0.419372	-146.502408
9.050000	-0.424716	-147.200265	-23.794000	-33.377069	-23.794000	-33.377069	-0.424725	-147.202817
9.100000	-0.430151	-147.901121	-23.742775	-33.888972	-23.742775	-33.888972	-0.430161	-147.903688
9.150000	-0.435617	-148.602132	-23.691591	-34.402273	-23.691591	-34.402273	-0.435626	-148.604714
9.200000	-0.441156	-149.303669	-23.640025	-34.919305	-23.640025	-34.919305	-0.441166	-149.306266
9.250000	-0.446735	-150.005469	-23.588425	-35.438201	-23.588425	-35.438201	-0.446744	-150.008081
9.300000	-0.452379	-150.707831	-23.536547	-35.960337	-23.536547	-35.960337	-0.452388	-150.710459
9.350000	-0.458071	-151.410595	-23.484561	-36.484786	-23.484561	-36.484786	-0.458080	-151.413238
9.400000	-0.463819	-152.113930	-23.432391	-37.011972	-23.432391	-37.011972	-0.463829	-152.116588
9.450000	-0.469625	-152.817836	-23.380042	-37.541897	-23.380042	-37.541897	-0.469635	-152.820510
9.500000	-0.475479	-153.522292	-23.327599	-38.074059	-23.327599	-38.074059	-0.475489	-153.524982
9.550000	-0.481400	-154.227519	-23.274902	-38.609355	-23.274902	-38.609355	-0.481410	-154.230225
9.600000	-0.487359	-154.933248	-23.222195	-39.146399	-23.222195	-39.146399	-0.487369	-154.935971
9.650000	-0.493393	-155.639981	-23.169157	-39.686940	-23.169157	-39.686940	-0.493404	-155.642719
9.700000	-0.499459	-156.347135	-23.116194	-40.228758	-23.116194	-40.228758	-0.499469	-156.349891
9.750000	-0.505607	-157.055558	-23.062813	-40.774409	-23.062813	-40.774409	-0.505617	-157.058330
9.800000	-0.511778	-157.764294	-23.009591	-41.320887	-23.009591	-41.320887	-0.511788	-157.767083
9.850000	-0.518040	-158.474596	-22.955858	-41.871507	-22.955858	-41.871507	-0.518051	-158.477403
9.900000	-0.524316	-159.185071	-22.902369	-42.422530	-22.902369	-42.422530	-0.524327	-159.187895
9.950000	-0.530693	-159.897444	-22.848265	-42.977984	-22.848265	-42.977984	-0.530703	-159.900285
10.000000	-0.537074	-160.609817	-22.794496	-43.533438	-22.794496	-43.533438	-0.537085	-160.612676
