! freq	dB(S11)	phase(S11)	dB(S12)	phase(S12)	
!     	dB(S21)	phase(S21)	dB(S22)	phase(S22)	
!S-par simulation data
#  GHz  S  DB  R 50
0.000000	-0.000000	0.000000	-341.045286	0.000000	-341.045286	0.000000	-0.000000	0.000000
0.050000	-0.000098	-0.779062	-73.923925	86.293172	-73.923925	86.293172	-0.000098	-0.779101
0.100000	-0.000389	-1.557887	-68.168208	86.126355	-68.168208	86.126355	-0.000389	-1.557965
0.150000	-0.000864	-2.336237	-64.735822	85.938163	-64.735822	85.938163	-0.000864	-2.336354
0.200000	-0.001496	-3.113971	-62.276667	85.553351	-62.276667	85.553351	-0.001496	-3.114127
0.250000	-0.002269	-3.890923	-60.360822	85.040866	-60.360822	85.040866	-0.002269	-3.891117
0.300000	-0.003170	-4.666889	-58.792845	84.447543	-58.792845	84.447543	-0.003170	-4.667122
0.350000	-0.004157	-5.441954	-57.466608	83.812973	-57.466608	83.812973	-0.004157	-5.442227
0.400000	-0.005221	-6.215939	-56.318490	83.146159	-56.318490	83.146159	-0.005221	-6.216250
0.450000	-0.006336	-6.988923	-55.306844	82.459854	-55.306844	82.459854	-0.006336	-6.989273
0.500000	-0.007487	-7.760871	-54.403345	81.759167	-54.403345	81.759167	-0.007487	-7.761259
0.550000	-0.008658	-8.531814	-53.587635	81.048377	-53.587635	81.048377	-0.008658	-8.532241
0.600000	-0.009838	-9.301784	-52.844663	80.330304	-52.844663	80.330304	-0.009838	-9.302249
0.650000	-0.011017	-10.070815	-52.162977	79.606961	-52.162977	79.606961	-0.011018	-10.071318
0.700000	-0.012191	-10.838941	-51.533662	78.879833	-51.533662	78.879833	-0.012191	-10.839482
0.750000	-0.013353	-11.606195	-50.949646	78.150044	-50.949646	78.150044	-0.013354	-11.606774
0.800000	-0.014501	-12.372604	-50.405219	77.418474	-50.405219	77.418474	-0.014502	-12.373221
0.850000	-0.015631	-13.138052	-49.896246	76.685796	-49.896246	76.685796	-0.015632	-13.138707
0.900000	-0.016744	-13.902660	-49.418387	75.952603	-49.418387	75.952603	-0.016745	-13.903353
0.950000	-0.017849	-14.666858	-48.966978	75.219554	-48.966978	75.219554	-0.017850	-14.667587
1.000000	-0.018930	-15.429821	-48.542233	74.486938	-48.542233	74.486938	-0.018931	-15.430588
1.050000	-0.020006	-16.192511	-48.138313	73.754665	-48.138313	73.754665	-0.020007	-16.193315
1.100000	-0.021058	-16.953834	-47.757218	73.024110	-47.757218	73.024110	-0.021059	-16.954675
1.150000	-0.022108	-17.715018	-47.392652	72.293823	-47.392652	72.293823	-0.022109	-17.715896
1.200000	-0.023137	-18.474674	-47.048152	71.566495	-47.048152	71.566495	-0.023138	-18.475588
1.250000	-0.024166	-19.234329	-46.716796	70.839168	-46.716796	70.839168	-0.024167	-19.235280
1.300000	-0.025180	-19.992704	-46.401970	70.114881	-46.401970	70.114881	-0.025182	-19.993691
1.350000	-0.026187	-20.750241	-46.100970	69.392820	-46.100970	69.392820	-0.026189	-20.751264
1.400000	-0.027188	-21.506925	-45.812860	68.673175	-45.812860	68.673175	-0.027190	-21.507984
1.450000	-0.028183	-22.262739	-45.536801	67.956128	-45.536801	67.956128	-0.028185	-22.263834
1.500000	-0.029173	-23.017666	-45.272037	67.241853	-45.272037	67.241853	-0.029175	-23.018796
1.550000	-0.030160	-23.771688	-45.017890	66.530520	-45.017890	66.530520	-0.030161	-23.772853
1.600000	-0.031143	-24.524785	-44.773741	65.822293	-44.773741	65.822293	-0.031145	-24.525986
1.650000	-0.032123	-25.276941	-44.539032	65.117335	-44.539032	65.117335	-0.032125	-25.278176
1.700000	-0.033101	-26.027793	-44.314236	64.417069	-44.314236	64.417069	-0.033103	-26.029063
1.750000	-0.034078	-26.778137	-44.096532	63.718645	-44.096532	63.718645	-0.034080	-26.779441
1.800000	-0.035054	-27.527256	-43.887499	63.024847	-43.887499	63.024847	-0.035056	-27.528594
1.850000	-0.036029	-28.275501	-43.685715	62.334354	-43.685715	62.334354	-0.036031	-28.276873
1.900000	-0.037003	-29.022655	-43.491354	61.648159	-43.491354	61.648159	-0.037006	-29.024061
1.950000	-0.037978	-29.768719	-43.304030	60.966262	-43.304030	60.966262	-0.037980	-29.770159
2.000000	-0.038953	-30.513842	-43.123004	60.288221	-43.123004	60.288221	-0.038956	-30.515315
2.050000	-0.039929	-31.257648	-42.948889	59.615579	-42.948889	59.615579	-0.039932	-31.259154
2.100000	-0.040906	-32.000675	-42.780047	58.946243	-42.780047	58.946243	-0.040909	-32.002213
2.150000	-0.041885	-32.742144	-42.618060	58.283516	-42.618060	58.283516	-0.041887	-32.743716
2.200000	-0.042865	-33.483012	-42.460407	57.623433	-42.460407	57.623433	-0.042867	-33.484615
2.250000	-0.043847	-34.222072	-42.309602	56.971282	-42.309602	56.971282	-0.043849	-34.223708
2.300000	-0.044830	-34.960719	-42.162270	56.321005	-42.162270	56.321005	-0.044833	-34.962386
2.350000	-0.045818	-35.697299	-42.021817	55.680096	-42.021817	55.680096	-0.045820	-35.698997
2.400000	-0.046806	-36.433666	-41.884040	55.040179	-41.884040	55.040179	-0.046809	-36.435396
2.450000	-0.047800	-37.167697	-41.753199	54.411184	-41.753199	54.411184	-0.047802	-37.169457
2.500000	-0.048794	-37.901727	-41.624300	53.782188	-41.624300	53.782188	-0.048796	-37.903519
2.550000	-0.049795	-38.633144	-41.502412	53.165786	-41.502412	53.165786	-0.049798	-38.634966
2.600000	-0.050797	-39.364561	-41.382211	52.549384	-41.382211	52.549384	-0.050799	-39.366413
2.650000	-0.051806	-40.093525	-41.268255	51.945156	-41.268255	51.945156	-0.051809	-40.095407
2.700000	-0.052816	-40.822265	-41.156188	51.342034	-41.156188	51.342034	-0.052819	-40.824177
2.750000	-0.053835	-41.548727	-41.049642	50.750561	-41.049642	50.750561	-0.053837	-41.550667
2.800000	-0.054855	-42.274732	-40.945197	50.161417	-40.945197	50.161417	-0.054858	-42.276702
2.850000	-0.055884	-42.998645	-40.845586	49.583286	-40.845586	49.583286	-0.055887	-43.000642
2.900000	-0.056915	-43.721859	-40.748290	49.008825	-40.748290	49.008825	-0.056918	-43.723885
2.950000	-0.057956	-44.443177	-40.655181	48.444630	-40.655181	48.444630	-0.057959	-44.445232
3.000000	-0.059000	-45.163548	-40.564598	47.885567	-40.564598	47.885567	-0.059003	-45.165630
3.050000	-0.060053	-45.882230	-40.477590	47.335908	-40.477590	47.335908	-0.060056	-45.884339
3.100000	-0.061112	-46.599707	-40.393312	46.792967	-40.393312	46.792967	-0.061115	-46.601843
3.150000	-0.062179	-47.315714	-40.312032	46.258451	-40.312032	46.258451	-0.062182	-47.317877
3.200000	-0.063254	-48.030250	-40.233676	45.732362	-40.233676	45.732362	-0.063257	-48.032440
3.250000	-0.064335	-48.743544	-40.157778	45.213602	-40.157778	45.213602	-0.064338	-48.745759
3.300000	-0.065427	-49.455097	-40.084979	44.705103	-40.084979	44.705103	-0.065430	-49.457338
3.350000	-0.066526	-50.165642	-40.014135	44.202716	-40.014135	44.202716	-0.066529	-50.167909
3.400000	-0.067636	-50.874171	-39.946545	43.712550	-39.946545	43.712550	-0.067640	-50.876463
3.450000	-0.068752	-51.581935	-39.880445	43.227155	-39.880445	43.227155	-0.068756	-51.584252
3.500000	-0.069884	-52.287404	-39.817729	42.756069	-39.817729	42.756069	-0.069887	-52.289745
3.550000	-0.071019	-52.992356	-39.756076	42.288288	-39.756076	42.288288	-0.071022	-52.994722
3.600000	-0.072172	-53.694730	-39.697907	41.837028	-39.697907	41.837028	-0.072175	-53.697119
3.650000	-0.073327	-54.396844	-39.640415	41.387483	-39.640415	41.387483	-0.073331	-54.399256
3.700000	-0.074504	-55.096092	-39.586474	40.956794	-39.586474	40.956794	-0.074507	-55.098528
3.750000	-0.075681	-55.795341	-39.532866	40.526105	-39.532866	40.526105	-0.075685	-55.797799
3.800000	-0.076883	-56.491437	-39.482838	40.116723	-39.482838	40.116723	-0.076887	-56.493918
3.850000	-0.078086	-57.187533	-39.433096	39.707340	-39.433096	39.707340	-0.078089	-57.190036
3.900000	-0.079313	-57.880717	-39.386412	39.318151	-39.386412	39.318151	-0.079316	-57.883241
3.950000	-0.080542	-58.573636	-39.340230	38.930799	-39.340230	38.930799	-0.080546	-58.576182
4.000000	-0.081795	-59.263890	-39.296618	38.562391	-39.296618	38.562391	-0.081799	-59.266457
4.050000	-0.083053	-59.953611	-39.253686	38.197774	-39.253686	38.197774	-0.083057	-59.956199
4.100000	-0.084334	-60.640921	-39.212873	37.850715	-39.212873	37.850715	-0.084337	-60.643528
4.150000	-0.085622	-61.327426	-39.172882	37.509510	-39.172882	37.509510	-0.085626	-61.330053
4.200000	-0.086931	-62.011777	-39.134593	37.184342	-39.134593	37.184342	-0.086935	-62.014424
4.250000	-0.088252	-62.695052	-39.097228	36.867193	-39.097228	36.867193	-0.088255	-62.697718
4.300000	-0.089591	-63.376435	-39.061189	36.564424	-39.061189	36.564424	-0.089595	-63.379120
4.350000	-0.090945	-64.056467	-39.026127	36.271927	-39.026127	36.271927	-0.090949	-64.059170
4.400000	-0.092317	-64.734873	-38.992059	35.992026	-38.992059	35.992026	-0.092320	-64.737595
4.450000	-0.093706	-65.411654	-38.958973	35.724721	-38.958973	35.724721	-0.093710	-65.414394
4.500000	-0.095110	-66.087078	-38.926594	35.468107	-38.926594	35.468107	-0.095114	-66.089835
4.550000	-0.096537	-66.760602	-38.895146	35.226461	-38.895146	35.226461	-0.096540	-66.763376
4.600000	-0.097976	-67.433040	-38.864169	34.993495	-38.864169	34.993495	-0.097979	-67.435831
4.650000	-0.099440	-68.103305	-38.834012	34.777890	-38.834012	34.777890	-0.099444	-68.106112
4.700000	-0.100915	-68.772755	-38.804143	34.568864	-38.804143	34.568864	-0.100919	-68.775579
4.750000	-0.102420	-69.439761	-38.774923	34.379576	-38.774923	34.379576	-0.102424	-69.442600
4.800000	-0.103933	-70.106225	-38.745864	34.194701	-38.745864	34.194701	-0.103936	-70.109079
4.850000	-0.105480	-70.769975	-38.717215	34.031889	-38.717215	34.031889	-0.105483	-70.772844
4.900000	-0.107031	-71.433454	-38.688660	33.871285	-38.688660	33.871285	-0.107034	-71.436338
4.950000	-0.108621	-72.093954	-38.660208	33.734964	-38.660208	33.734964	-0.108625	-72.096852
5.000000	-0.110212	-72.754455	-38.631849	33.598644	-38.631849	33.598644	-0.110216	-72.757367
5.050000	-0.111848	-73.411715	-38.603211	33.488671	-38.603211	33.488671	-0.111852	-73.414640
5.100000	-0.113485	-74.068974	-38.574668	33.378699	-38.574668	33.378699	-0.113488	-74.071913
5.150000	-0.115164	-74.723274	-38.545520	33.292582	-38.545520	33.292582	-0.115167	-74.726225
5.200000	-0.116847	-75.377304	-38.516407	33.208635	-38.516407	33.208635	-0.116851	-75.380267
5.250000	-0.118570	-76.028655	-38.486424	33.145939	-38.486424	33.145939	-0.118574	-76.031630
5.300000	-0.120302	-76.679470	-38.456352	33.087494	-38.456352	33.087494	-0.120306	-76.682457
5.350000	-0.122071	-77.327887	-38.425208	33.047622	-38.425208	33.047622	-0.122075	-77.330885
5.400000	-0.123854	-77.975504	-38.393785	33.013940	-38.393785	33.013940	-0.123857	-77.978513
5.450000	-0.125670	-78.621002	-38.361159	32.996120	-38.361159	32.996120	-0.125674	-78.624022
5.500000	-0.127504	-79.265440	-38.327998	32.986232	-38.327998	32.986232	-0.127508	-79.268470
5.550000	-0.129369	-79.908037	-38.293572	32.989514	-38.293572	32.989514	-0.129373	-79.911077
5.600000	-0.131256	-80.549319	-38.258292	33.002203	-38.258292	33.002203	-0.131260	-80.552368
5.650000	-0.133171	-81.189034	-38.221761	33.025450	-38.221761	33.025450	-0.133175	-81.192093
5.700000	-0.135114	-81.827183	-38.183993	33.059254	-38.183993	33.059254	-0.135117	-81.830250
5.750000	-0.137080	-82.464038	-38.145062	33.101140	-38.145062	33.101140	-0.137084	-82.467114
5.800000	-0.139079	-83.099081	-38.104454	33.154341	-38.104454	33.154341	-0.139083	-83.102165
5.850000	-0.141097	-83.733099	-38.062847	33.213354	-38.062847	33.213354	-0.141101	-83.736190
5.900000	-0.143155	-84.365065	-38.019071	33.283990	-38.019071	33.283990	-0.143159	-84.368164
5.950000	-0.145227	-84.996271	-37.974531	33.358437	-37.974531	33.358437	-0.145231	-84.999376
6.000000	-0.147345	-85.625191	-37.927286	33.444313	-37.927286	33.444313	-0.147348	-85.628303
6.050000	-0.149472	-86.253610	-37.879584	33.532329	-37.879584	33.532329	-0.149476	-86.256728
6.100000	-0.151651	-86.879519	-37.828604	33.631038	-37.828604	33.631038	-0.151655	-86.882643
6.150000	-0.153835	-87.505180	-37.777539	33.730600	-37.777539	33.730600	-0.153839	-87.508309
6.200000	-0.156077	-88.128112	-37.722596	33.839551	-37.722596	33.839551	-0.156081	-88.131246
6.250000	-0.158319	-88.751044	-37.667999	33.948502	-37.667999	33.948502	-0.158323	-88.754183
6.300000	-0.160625	-89.371037	-37.608912	34.064956	-37.608912	34.064956	-0.160629	-89.374180
6.350000	-0.162932	-89.991030	-37.550224	34.181409	-37.550224	34.181409	-0.162935	-89.994177
6.400000	-0.165298	-90.608365	-37.487283	34.302134	-37.487283	34.302134	-0.165302	-90.611516
6.450000	-0.167671	-91.225459	-37.424376	34.423246	-37.424376	34.423246	-0.167675	-91.228613
6.500000	-0.170100	-91.840171	-37.357531	34.545823	-37.357531	34.545823	-0.170103	-91.843328
6.550000	-0.172540	-92.454406	-37.290326	34.668692	-37.290326	34.668692	-0.172544	-92.457566
6.600000	-0.175032	-93.066531	-37.219569	34.790696	-37.219569	34.790696	-0.175035	-93.069693
6.650000	-0.177541	-93.677952	-37.148038	34.912412	-37.148038	34.912412	-0.177545	-93.681115
6.700000	-0.180097	-94.287527	-37.073400	35.031447	-37.073400	35.031447	-0.180101	-94.290692
6.750000	-0.182677	-94.896179	-36.997569	35.149143	-36.997569	35.149143	-0.182681	-94.899344
6.800000	-0.185299	-95.503242	-36.919123	35.262876	-36.919123	35.262876	-0.185302	-95.506409
6.850000	-0.187951	-96.109172	-36.839064	35.373778	-36.839064	35.373778	-0.187954	-96.112338
6.900000	-0.190640	-96.713764	-36.756920	35.479968	-36.756920	35.479968	-0.190643	-96.716931
6.950000	-0.193365	-97.317020	-36.672755	35.581444	-36.672755	35.581444	-0.193368	-97.320186
7.000000	-0.196122	-97.919183	-36.587057	35.677973	-36.587057	35.677973	-0.196125	-97.922348
7.050000	-0.198922	-98.519816	-36.498950	35.767574	-36.498950	35.767574	-0.198925	-98.522980
7.100000	-0.201748	-99.119592	-36.409873	35.852474	-36.409873	35.852474	-0.201751	-99.122754
7.150000	-0.204625	-99.717653	-36.318027	35.927968	-36.318027	35.927968	-0.204628	-99.720814
7.200000	-0.207522	-100.315086	-36.225772	35.999440	-36.225772	35.999440	-0.207525	-100.318244
7.250000	-0.210476	-100.910630	-36.130421	36.058844	-36.130421	36.058844	-0.210479	-100.913785
7.300000	-0.213444	-101.505764	-36.035213	36.115279	-36.035213	36.115279	-0.213447	-101.508916
7.350000	-0.216478	-102.098846	-35.936620	36.156872	-35.936620	36.156872	-0.216480	-102.101995
7.400000	-0.219519	-102.691728	-35.838698	36.196861	-35.838698	36.196861	-0.219521	-102.694873
7.450000	-0.222633	-103.282404	-35.737144	36.219205	-35.737144	36.219205	-0.222635	-103.285545
7.500000	-0.225748	-103.873081	-35.636764	36.241548	-35.636764	36.241548	-0.225750	-103.876217
7.550000	-0.228943	-104.461410	-35.532544	36.243484	-35.532544	36.243484	-0.228946	-104.464541
7.600000	-0.232140	-105.049740	-35.429561	36.245419	-35.429561	36.245419	-0.232143	-105.052865
7.650000	-0.235412	-105.635973	-35.323385	36.227843	-35.323385	36.227843	-0.235414	-105.639092
7.700000	-0.238692	-106.222015	-35.218096	36.208492	-35.218096	36.208492	-0.238694	-106.225128
7.750000	-0.242041	-106.806201	-35.110236	36.170897	-35.110236	36.170897	-0.242043	-106.809308
7.800000	-0.245406	-107.390017	-35.002942	36.129652	-35.002942	36.129652	-0.245408	-107.393117
7.850000	-0.248834	-107.972210	-34.893665	36.071723	-34.893665	36.071723	-0.248835	-107.975302
7.900000	-0.252283	-108.553862	-34.784662	36.008232	-34.784662	36.008232	-0.252285	-108.556946
7.950000	-0.255791	-109.134113	-34.674226	35.929834	-34.674226	35.929834	-0.255792	-109.137190
8.000000	-0.259328	-109.713665	-34.563802	35.843983	-34.563802	35.843983	-0.259329	-109.716733
8.050000	-0.262915	-110.292030	-34.452455	35.745149	-34.452455	35.745149	-0.262917	-110.295089
8.100000	-0.266540	-110.869548	-34.340888	35.637040	-34.340888	35.637040	-0.266541	-110.872597
8.150000	-0.270209	-111.446081	-34.228864	35.517952	-34.228864	35.517952	-0.270210	-111.449121
8.200000	-0.273923	-112.021630	-34.116416	35.387884	-34.116416	35.387884	-0.273924	-112.024660
8.250000	-0.277675	-112.596388	-34.003933	35.248861	-34.003933	35.248861	-0.277676	-112.599407
8.300000	-0.281479	-113.170037	-33.890850	35.097302	-33.890850	35.097302	-0.281480	-113.173045
8.350000	-0.285314	-113.743076	-33.778110	34.938784	-33.778110	34.938784	-0.285315	-113.746073
8.400000	-0.289210	-114.314895	-33.664619	34.766348	-33.664619	34.766348	-0.289210	-114.317880
8.450000	-0.293129	-114.886273	-33.551807	34.588879	-33.551807	34.588879	-0.293129	-114.889246
8.500000	-0.297117	-115.456332	-33.438115	34.396307	-33.438115	34.396307	-0.297117	-115.459292
8.550000	-0.301122	-116.026109	-33.325399	34.200519	-33.325399	34.200519	-0.301121	-116.029056
8.600000	-0.305203	-116.594480	-33.211691	33.988653	-33.211691	33.988653	-0.305202	-116.597413
8.650000	-0.309293	-117.162715	-33.099219	33.775255	-33.099219	33.775255	-0.309293	-117.165635
8.700000	-0.313469	-117.729471	-32.985659	33.545018	-32.985659	33.545018	-0.313468	-117.732376
8.750000	-0.317646	-118.296227	-32.873564	33.314780	-32.873564	33.314780	-0.317645	-118.299117
8.800000	-0.321917	-118.861442	-32.760293	33.067157	-32.760293	33.067157	-0.321916	-118.864316
8.850000	-0.326189	-119.426657	-32.648481	32.819533	-32.648481	32.819533	-0.326188	-119.429516
8.900000	-0.330548	-119.990530	-32.535830	32.556917	-32.535830	32.556917	-0.330547	-119.993373
8.950000	-0.334917	-120.554281	-32.424418	32.292938	-32.424418	32.292938	-0.334916	-120.557107
9.000000	-0.339365	-121.116876	-32.312464	32.016213	-32.312464	32.016213	-0.339363	-121.119685
9.050000	-0.343831	-121.679240	-32.201550	31.736938	-32.201550	31.736938	-0.343829	-121.682032
9.100000	-0.348369	-122.240623	-32.090358	31.446997	-32.090358	31.446997	-0.348366	-122.243396
9.150000	-0.352932	-122.801679	-31.980019	31.153502	-31.980019	31.153502	-0.352929	-122.804433
9.200000	-0.357560	-123.361915	-31.869635	30.851244	-31.869635	30.851244	-0.357557	-123.364651
9.250000	-0.362222	-123.921742	-31.759930	30.544604	-31.759930	30.544604	-0.362219	-123.924459
9.300000	-0.366941	-124.480900	-31.650386	30.230923	-31.650386	30.230923	-0.366937	-124.483597
9.350000	-0.371701	-125.039581	-31.541355	29.912210	-31.541355	29.912210	-0.371697	-125.042257
9.400000	-0.376512	-125.597729	-31.432671	29.587988	-31.432671	29.587988	-0.376507	-125.600384
9.450000	-0.381372	-126.155345	-31.324337	29.258256	-31.324337	29.258256	-0.381367	-126.157978
9.500000	-0.386274	-126.712552	-31.216518	28.924361	-31.216518	28.924361	-0.386269	-126.715164
9.550000	-0.391234	-127.269188	-31.108887	28.584639	-31.108887	28.584639	-0.391229	-127.271778
9.600000	-0.396228	-127.825526	-31.001927	28.241919	-31.001927	28.241919	-0.396223	-127.828093
9.650000	-0.401289	-128.381268	-30.894991	27.893203	-30.894991	27.893203	-0.401283	-128.383811
9.700000	-0.406376	-128.936808	-30.788873	27.542480	-30.788873	27.542480	-0.406370	-128.939327
9.750000	-0.411537	-129.491743	-30.682608	27.185734	-30.682608	27.185734	-0.411531	-129.494238
9.800000	-0.416717	-130.046559	-30.577305	26.827803	-30.577305	26.827803	-0.416710	-130.049028
9.850000	-0.421979	-130.600776	-30.471672	26.463947	-30.471672	26.463947	-0.421972	-130.603219
9.900000	-0.427252	-131.154940	-30.367147	26.099572	-30.367147	26.099572	-0.427245	-131.157358
9.950000	-0.432616	-131.708529	-30.262098	25.729484	-30.262098	25.729484	-0.432608	-131.710920
10.000000	-0.437982	-132.262118	-30.158305	25.359396	-30.158305	25.359396	-0.437974	-132.264483
