! freq	dB(S11)	phase(S11)	dB(S12)	phase(S12)	
!     	dB(S21)	phase(S21)	dB(S22)	phase(S22)	
!S-par simulation data
#  GHz  S  DB  R 50
0.000000	-0.000000	0.000000	-314.068917	0.000000	-314.068917	0.000000	-0.000000	0.000000
0.050000	-0.008507	-1.032875	-56.008203	88.980572	-56.008203	88.980572	-0.007320	-0.954321
0.100000	-0.008783	-2.055661	-49.989413	87.961780	-49.989413	87.961780	-0.007912	-1.888828
0.150000	-0.009109	-3.080410	-46.470670	86.944286	-46.470670	86.944286	-0.008281	-2.827149
0.200000	-0.009537	-4.105397	-43.975918	85.928511	-43.975918	85.928511	-0.008703	-3.766303
0.250000	-0.010078	-5.130196	-42.042845	84.915055	-42.042845	84.915055	-0.009216	-4.705574
0.300000	-0.010732	-6.154586	-40.465431	83.904415	-40.465431	83.904415	-0.009830	-5.644637
0.350000	-0.011489	-7.178460	-39.133500	82.896734	-39.133500	82.896734	-0.010535	-6.583330
0.400000	-0.012357	-8.201620	-37.981795	81.892752	-37.981795	81.892752	-0.011344	-7.521461
0.450000	-0.013314	-9.224090	-36.967429	80.892070	-36.967429	80.892070	-0.012235	-8.459024
0.500000	-0.014374	-10.245621	-36.061990	79.895540	-36.061990	79.895540	-0.013221	-9.395804
0.550000	-0.015515	-11.266285	-35.244326	78.902565	-35.244326	78.902565	-0.014283	-10.331850
0.600000	-0.016741	-12.285894	-34.499469	77.913588	-34.499469	77.913588	-0.015424	-11.266999
0.650000	-0.018042	-13.304438	-33.815656	76.928334	-33.815656	76.928334	-0.016636	-12.201240
0.700000	-0.019412	-14.321853	-33.183861	75.946702	-33.183861	75.946702	-0.017912	-13.134515
0.750000	-0.020848	-15.338009	-32.597042	74.968768	-32.597042	74.968768	-0.019251	-14.066713
0.800000	-0.022339	-16.352996	-32.049181	73.993977	-32.049181	73.993977	-0.020642	-14.997910
0.850000	-0.023893	-17.366377	-31.536122	73.023074	-31.536122	73.023074	-0.022094	-15.927730
0.900000	-0.025481	-18.378815	-31.052941	72.054297	-31.052941	72.054297	-0.023578	-16.856743
0.950000	-0.027125	-19.389402	-30.597526	71.089269	-30.597526	71.089269	-0.025115	-17.784171
1.000000	-0.028801	-20.398749	-30.166254	70.126490	-30.166254	70.126490	-0.026683	-18.710538
1.050000	-0.030506	-21.406839	-29.756784	69.165894	-29.756784	69.165894	-0.028281	-19.635829
1.100000	-0.032247	-22.413172	-29.367611	68.208099	-29.367611	68.208099	-0.029913	-20.559617
1.150000	-0.034016	-23.417814	-28.996844	67.252731	-28.996844	67.252731	-0.031572	-21.481959
1.200000	-0.035805	-24.421102	-28.642576	66.299193	-28.642576	66.299193	-0.033252	-22.403145
1.250000	-0.037612	-25.423024	-28.303476	65.347440	-28.303476	65.347440	-0.034950	-23.323163
1.300000	-0.039444	-26.422651	-27.979208	64.398461	-27.979208	64.398461	-0.036673	-24.241223
1.350000	-0.041288	-27.420844	-27.667882	63.451114	-27.667882	63.451114	-0.038409	-25.158057
1.400000	-0.043145	-28.417589	-27.368575	62.505384	-27.368575	62.505384	-0.040158	-26.073658
1.450000	-0.045014	-29.412467	-27.080803	61.561683	-27.080803	61.561683	-0.041921	-26.987665
1.500000	-0.046895	-30.405302	-26.803935	60.620132	-26.803935	60.620132	-0.043696	-27.899929
1.550000	-0.048784	-31.396617	-26.536840	59.680161	-26.536840	59.680161	-0.045480	-28.810898
1.600000	-0.050681	-32.386401	-26.278910	58.741772	-26.278910	58.741772	-0.047272	-29.720560
1.650000	-0.052586	-33.373778	-26.030264	57.805852	-26.030264	57.805852	-0.049075	-30.628171
1.700000	-0.054497	-34.359643	-25.789676	56.871484	-25.789676	56.871484	-0.050884	-31.534491
1.750000	-0.056415	-35.343520	-25.557036	55.939164	-25.557036	55.939164	-0.052701	-32.439116
1.800000	-0.058338	-36.325492	-25.331838	55.008817	-25.331838	55.008817	-0.054524	-33.342115
1.850000	-0.060267	-37.305536	-25.113695	54.080483	-25.113695	54.080483	-0.056354	-34.243468
1.900000	-0.062201	-38.283629	-24.902249	53.154206	-24.902249	53.154206	-0.058189	-35.143155
1.950000	-0.064141	-39.259750	-24.697167	52.230032	-24.697167	52.230032	-0.060031	-36.041156
2.000000	-0.066085	-40.233876	-24.498144	51.308005	-24.498144	51.308005	-0.061879	-36.937451
2.050000	-0.068035	-41.205985	-24.304895	50.388176	-24.304895	50.388176	-0.063734	-37.832022
2.100000	-0.069991	-42.176057	-24.117154	49.470590	-24.117154	49.470590	-0.065594	-38.724848
2.150000	-0.071952	-43.144072	-23.934673	48.555297	-23.934673	48.555297	-0.067461	-39.615911
2.200000	-0.073919	-44.110008	-23.757222	47.642343	-23.757222	47.642343	-0.069334	-40.505193
2.250000	-0.075893	-45.073848	-23.584584	46.731776	-23.584584	46.731776	-0.071214	-41.392673
2.300000	-0.077873	-46.035571	-23.416556	45.823641	-23.416556	45.823641	-0.073101	-42.278336
2.350000	-0.079859	-46.995159	-23.252947	44.917982	-23.252947	44.917982	-0.074996	-43.162163
2.400000	-0.081854	-47.952596	-23.093578	44.014843	-23.093578	44.014843	-0.076898	-44.044136
2.450000	-0.083855	-48.907864	-22.938278	43.114263	-22.938278	43.114263	-0.078807	-44.924240
2.500000	-0.085865	-49.860946	-22.786889	42.216284	-22.786889	42.216284	-0.080725	-45.802457
2.550000	-0.087884	-50.811731	-22.639310	41.321058	-22.639310	41.321058	-0.082652	-46.678689
2.600000	-0.089911	-51.760298	-22.495345	40.428508	-22.495345	40.428508	-0.084587	-47.553002
2.650000	-0.091948	-52.706635	-22.354859	39.538668	-22.354859	39.538668	-0.086532	-48.425382
2.700000	-0.093994	-53.650728	-22.217724	38.651569	-22.217724	38.651569	-0.088486	-49.295814
2.750000	-0.096051	-54.592564	-22.083817	37.767241	-22.083817	37.767241	-0.090450	-50.164286
2.800000	-0.098118	-55.532132	-21.953022	36.885713	-21.953022	36.885713	-0.092425	-51.030783
2.850000	-0.100196	-56.469422	-21.825228	36.007008	-21.825228	36.007008	-0.094409	-51.895294
2.900000	-0.102285	-57.404423	-21.700329	35.131153	-21.700329	35.131153	-0.096405	-52.757806
2.950000	-0.104386	-58.337128	-21.578225	34.258168	-21.578225	34.258168	-0.098412	-53.618310
3.000000	-0.106499	-59.267526	-21.458820	33.388073	-21.458820	33.388073	-0.100430	-54.476794
3.050000	-0.108624	-60.195613	-21.342021	32.520888	-21.342021	32.520888	-0.102460	-55.333248
3.100000	-0.110763	-61.121380	-21.227741	31.656628	-21.227741	31.656628	-0.104503	-56.187665
3.150000	-0.112915	-62.044824	-21.115896	30.795309	-21.115896	30.795309	-0.106558	-57.040034
3.200000	-0.115081	-62.965939	-21.006404	29.936943	-21.006404	29.936943	-0.108626	-57.890348
3.250000	-0.117260	-63.884723	-20.899189	29.081542	-20.899189	29.081542	-0.110707	-58.738601
3.300000	-0.119455	-64.801171	-20.794175	28.229115	-20.794175	28.229115	-0.112802	-59.584786
3.350000	-0.121664	-65.715284	-20.691292	27.379672	-20.691292	27.379672	-0.114911	-60.428897
3.400000	-0.123889	-66.627059	-20.590471	26.533219	-20.590471	26.533219	-0.117033	-61.270930
3.450000	-0.126129	-67.536498	-20.491645	25.689760	-20.491645	25.689760	-0.119171	-62.110880
3.500000	-0.128386	-68.443601	-20.394751	24.849301	-20.394751	24.849301	-0.121324	-62.948743
3.550000	-0.130659	-69.348370	-20.299727	24.011843	-20.299727	24.011843	-0.123491	-63.784517
3.600000	-0.132949	-70.250809	-20.206516	23.177387	-20.206516	23.177387	-0.125675	-64.618200
3.650000	-0.135256	-71.150920	-20.115058	22.345933	-20.115058	22.345933	-0.127874	-65.449790
3.700000	-0.137582	-72.048709	-20.025300	21.517480	-20.025300	21.517480	-0.130090	-66.279286
3.750000	-0.139925	-72.944180	-19.937188	20.692025	-19.937188	20.692025	-0.132323	-67.106688
3.800000	-0.142288	-73.837241	-19.850701	19.869694	-19.850701	19.869694	-0.134573	-67.931907
3.850000	-0.144669	-74.728000	-19.765757	19.050351	-19.765757	19.050351	-0.136841	-68.755034
3.900000	-0.147071	-75.616464	-19.682309	18.233991	-19.682309	18.233991	-0.139127	-69.576071
3.950000	-0.149492	-76.502644	-19.600310	17.420604	-19.600310	17.420604	-0.141431	-70.395022
4.000000	-0.151933	-77.386548	-19.519714	16.610184	-19.519714	16.610184	-0.143753	-71.211889
4.050000	-0.154395	-78.268188	-19.440478	15.802720	-19.440478	15.802720	-0.146095	-72.026676
4.100000	-0.156878	-79.147575	-19.362559	14.998202	-19.362559	14.998202	-0.148456	-72.839389
4.150000	-0.159383	-80.024722	-19.285917	14.196618	-19.285917	14.196618	-0.150837	-73.650033
4.200000	-0.161910	-80.899642	-19.210511	13.397956	-19.210511	13.397956	-0.153238	-74.458613
4.250000	-0.164459	-81.772349	-19.136303	12.602202	-19.136303	12.602202	-0.155660	-75.265137
4.300000	-0.167031	-82.642858	-19.063255	11.809343	-19.063255	11.809343	-0.158102	-76.069611
4.350000	-0.169627	-83.511184	-18.991330	11.019363	-18.991330	11.019363	-0.160567	-76.872043
4.400000	-0.172247	-84.377343	-18.920493	10.232245	-18.920493	10.232245	-0.163053	-77.672442
4.450000	-0.174891	-85.241354	-18.850709	9.447973	-18.850709	9.447973	-0.165562	-78.470817
4.500000	-0.177560	-86.103233	-18.781944	8.666530	-18.781944	8.666530	-0.168094	-79.267177
4.550000	-0.180255	-86.962999	-18.714166	7.887897	-18.714166	7.887897	-0.170649	-80.061533
4.600000	-0.182975	-87.820672	-18.647342	7.112053	-18.647342	7.112053	-0.173228	-80.853895
4.650000	-0.185722	-88.676270	-18.581442	6.338980	-18.581442	6.338980	-0.175831	-81.644274
4.700000	-0.188496	-89.529816	-18.516434	5.568657	-18.516434	5.568657	-0.178459	-82.432683
4.750000	-0.191297	-90.381330	-18.452290	4.801060	-18.452290	4.801060	-0.181113	-83.219134
4.800000	-0.194126	-91.230834	-18.388979	4.036169	-18.388979	4.036169	-0.183792	-84.003640
4.850000	-0.196984	-92.078351	-18.326475	3.273960	-18.326475	3.273960	-0.186498	-84.786213
4.900000	-0.199871	-92.923904	-18.264749	2.514409	-18.264749	2.514409	-0.189231	-85.566869
4.950000	-0.202788	-93.767517	-18.203773	1.757490	-18.203773	1.757490	-0.191991	-86.345621
5.000000	-0.205735	-94.609214	-18.143523	1.003179	-18.143523	1.003179	-0.194780	-87.122485
5.050000	-0.208715	-95.448941	-18.083984	0.251560	-18.083984	0.251560	-0.197598	-87.897395
5.100000	-0.211726	-96.286805	-18.025116	-0.497507	-18.025116	-0.497507	-0.200446	-88.670450
5.150000	-0.214769	-97.122833	-17.966897	-1.244051	-17.966897	-1.244051	-0.203324	-89.441665
5.200000	-0.217845	-97.957053	-17.909300	-1.988101	-17.909300	-1.988101	-0.206232	-90.211058
5.250000	-0.220954	-98.789491	-17.852304	-2.729685	-17.852304	-2.729685	-0.209171	-90.978646
5.300000	-0.224098	-99.620177	-17.795884	-3.468834	-17.795884	-3.468834	-0.212143	-91.744447
5.350000	-0.227276	-100.449138	-17.740018	-4.205580	-17.740018	-4.205580	-0.215146	-92.508478
5.400000	-0.230490	-101.276404	-17.684683	-4.939954	-17.684683	-4.939954	-0.218183	-93.270760
5.450000	-0.233752	-102.101440	-17.629906	-5.671191	-17.629906	-5.671191	-0.221265	-94.030717
5.500000	-0.237034	-102.925618	-17.575551	-6.401221	-17.575551	-6.401221	-0.224366	-94.789777
5.550000	-0.240361	-103.747858	-17.521684	-7.128503	-17.521684	-7.128503	-0.227510	-95.546788
5.600000	-0.243722	-104.568715	-17.468255	-7.853824	-17.468255	-7.853824	-0.230684	-96.302334
5.650000	-0.247124	-105.387980	-17.415250	-8.576870	-17.415250	-8.576870	-0.233897	-97.056169
5.700000	-0.250566	-106.205655	-17.362663	-9.297642	-17.362663	-9.297642	-0.237148	-97.808292
5.750000	-0.254044	-107.022063	-17.310445	-10.016587	-17.310445	-10.016587	-0.240434	-98.559027
5.800000	-0.257572	-107.836698	-17.258615	-10.732976	-17.258615	-10.732976	-0.243765	-99.307819
5.850000	-0.261129	-108.650369	-17.207114	-11.447962	-17.207114	-11.447962	-0.247125	-100.055533
5.900000	-0.264745	-109.462113	-17.155960	-12.160144	-17.155960	-12.160144	-0.250540	-100.801091
5.950000	-0.268385	-110.273172	-17.105107	-12.871321	-17.105107	-12.871321	-0.253978	-101.545865
6.000000	-0.272092	-111.082177	-17.054552	-13.579482	-17.054552	-13.579482	-0.257480	-102.288289
6.050000	-0.275817	-111.890751	-17.004280	-14.287005	-17.004280	-14.287005	-0.260998	-103.030207
6.100000	-0.279619	-112.697172	-16.954249	-14.991340	-16.954249	-14.991340	-0.264590	-103.769599
6.150000	-0.283432	-113.503391	-16.904495	-15.695373	-16.904495	-15.695373	-0.268191	-104.508747
6.200000	-0.287333	-114.307389	-16.854915	-16.396087	-16.854915	-16.396087	-0.271878	-105.245213
6.250000	-0.291237	-115.111387	-16.805617	-17.096801	-16.805617	-17.096801	-0.275566	-105.981680
6.300000	-0.295241	-115.913125	-16.756418	-17.794110	-16.756418	-17.794110	-0.279350	-106.715329
6.350000	-0.299247	-116.714864	-16.707497	-18.491418	-16.707497	-18.491418	-0.283135	-107.448977
6.400000	-0.303348	-117.514686	-16.658632	-19.185813	-16.658632	-19.185813	-0.287013	-108.180146
6.450000	-0.307460	-118.314334	-16.610021	-19.879943	-16.610021	-19.879943	-0.290900	-108.911089
6.500000	-0.311663	-119.112382	-16.561436	-20.571622	-16.561436	-20.571622	-0.294874	-109.639871
6.550000	-0.315885	-119.910110	-16.513071	-21.262811	-16.513071	-21.262811	-0.298866	-110.368222
6.600000	-0.320192	-120.706531	-16.464711	-21.951980	-16.464711	-21.951980	-0.302940	-111.094716
6.650000	-0.324529	-121.502516	-16.416532	-22.640477	-16.416532	-22.640477	-0.307042	-111.820591
6.700000	-0.328943	-122.297458	-16.368348	-23.327351	-16.368348	-23.327351	-0.311220	-112.544895
6.750000	-0.333397	-123.091879	-16.320295	-24.013414	-16.320295	-24.013414	-0.315435	-113.268413
6.800000	-0.337923	-123.885495	-16.272238	-24.698216	-16.272238	-24.698216	-0.319719	-113.990627
6.850000	-0.342499	-124.678536	-16.224256	-25.382117	-16.224256	-25.382117	-0.324053	-114.711911
6.900000	-0.347139	-125.470979	-16.176282	-26.065077	-16.176282	-26.065077	-0.328447	-115.432138
6.950000	-0.351842	-126.262826	-16.128317	-26.747096	-16.128317	-26.747096	-0.332902	-116.151310
7.000000	-0.356600	-127.054255	-16.080382	-27.428453	-16.080382	-27.428453	-0.337411	-116.869655
7.050000	-0.361434	-127.845100	-16.032385	-28.108883	-16.032385	-28.108883	-0.341992	-117.586841
7.100000	-0.366314	-128.635675	-15.984449	-28.788882	-15.984449	-28.788882	-0.346618	-118.303409
7.150000	-0.371282	-129.425711	-15.936372	-29.468021	-15.936372	-29.468021	-0.351331	-119.018740
7.200000	-0.376287	-130.215595	-15.888397	-30.146914	-15.888397	-30.146914	-0.356078	-119.733639
7.250000	-0.381395	-131.005022	-15.840197	-30.825071	-15.840197	-30.825071	-0.360926	-120.447244
7.300000	-0.386529	-131.794382	-15.792147	-31.503117	-15.792147	-31.503117	-0.365799	-121.160583
7.350000	-0.391781	-132.583402	-15.743785	-32.180606	-15.743785	-32.180606	-0.370787	-121.872596
7.400000	-0.397048	-133.372406	-15.695628	-32.858067	-15.695628	-32.858067	-0.375789	-122.584488
7.450000	-0.402448	-134.161226	-15.647065	-33.535210	-15.647065	-33.535210	-0.380921	-123.295045
7.500000	-0.407852	-134.950046	-15.598772	-34.212353	-15.598772	-34.212353	-0.386056	-124.005601
7.550000	-0.413406	-135.738877	-15.549975	-34.889473	-15.549975	-34.889473	-0.391338	-124.714840
7.600000	-0.418962	-136.527707	-15.501451	-35.566593	-15.501451	-35.566593	-0.396622	-125.424078
7.650000	-0.424661	-137.316744	-15.452458	-36.243990	-15.452458	-36.243990	-0.402046	-126.132237
7.700000	-0.430376	-138.105800	-15.403673	-36.921413	-15.403673	-36.921413	-0.407485	-126.840298
7.750000	-0.436224	-138.895226	-15.354463	-37.599358	-15.354463	-37.599358	-0.413054	-127.547496
7.800000	-0.442101	-139.684725	-15.305391	-38.277409	-15.305391	-38.277409	-0.418653	-128.254522
7.850000	-0.448102	-140.474726	-15.255944	-38.956172	-15.255944	-38.956172	-0.424373	-128.960881
7.900000	-0.454148	-141.264893	-15.206562	-39.635172	-15.206562	-39.635172	-0.430135	-129.667017
7.950000	-0.460278	-142.055489	-15.157016	-40.314781	-15.157016	-40.314781	-0.435982	-130.372770
8.000000	-0.466506	-142.846614	-15.107246	-40.995140	-15.107246	-40.995140	-0.441925	-131.078124
8.050000	-0.472819	-143.638258	-15.057324	-41.676227	-15.057324	-41.676227	-0.447951	-131.783179
8.100000	-0.479217	-144.430475	-15.007245	-42.358113	-15.007245	-42.358113	-0.454061	-132.487973
8.150000	-0.485702	-145.223318	-14.957007	-43.040867	-14.957007	-43.040867	-0.460257	-133.192538
8.200000	-0.492276	-146.016842	-14.906607	-43.724559	-14.906607	-43.724559	-0.466541	-133.896912
8.250000	-0.498939	-146.811104	-14.856042	-44.409256	-14.856042	-44.409256	-0.472912	-134.601129
8.300000	-0.505692	-147.606159	-14.805310	-45.095023	-14.805310	-45.095023	-0.479373	-135.305227
8.350000	-0.512537	-148.402063	-14.754408	-45.781926	-14.754408	-45.781926	-0.485925	-136.009240
8.400000	-0.519475	-149.198875	-14.703336	-46.470028	-14.703336	-46.470028	-0.492569	-136.713206
8.450000	-0.526506	-149.996651	-14.652090	-47.159393	-14.652090	-47.159393	-0.499305	-137.417162
8.500000	-0.533633	-150.795450	-14.600670	-47.850082	-14.600670	-47.850082	-0.506137	-138.121145
8.550000	-0.540856	-151.595331	-14.549074	-48.542154	-14.549074	-48.542154	-0.513064	-138.825193
8.600000	-0.548177	-152.396354	-14.497301	-49.235668	-14.497301	-49.235668	-0.520089	-139.529344
8.650000	-0.555597	-153.198578	-14.445348	-49.930681	-14.445348	-49.930681	-0.527212	-140.233637
8.700000	-0.563116	-154.002065	-14.393216	-50.627250	-14.393216	-50.627250	-0.534435	-140.938109
8.750000	-0.570737	-154.806876	-14.340903	-51.325431	-14.340903	-51.325431	-0.541758	-141.642801
8.800000	-0.578464	-155.613137	-14.288385	-52.025350	-14.288385	-52.025350	-0.549189	-142.347764
8.850000	-0.586295	-156.420852	-14.235684	-52.726993	-14.235684	-52.726993	-0.556723	-143.053030
8.900000	-0.594230	-157.230086	-14.182797	-53.430410	-14.182797	-53.430410	-0.564363	-143.758639
8.950000	-0.602272	-158.040903	-14.129723	-54.135652	-14.129723	-54.135652	-0.572109	-144.464631
9.000000	-0.610421	-158.853367	-14.076461	-54.842770	-14.076461	-54.842770	-0.579963	-145.171047
9.050000	-0.618678	-159.667545	-14.023009	-55.551815	-14.023009	-55.551815	-0.587927	-145.877930
9.100000	-0.627045	-160.483502	-13.969365	-56.262835	-13.969365	-56.262835	-0.596001	-146.585321
9.150000	-0.635523	-161.301307	-13.915529	-56.975880	-13.915529	-56.975880	-0.604187	-147.293263
9.200000	-0.644113	-162.121027	-13.861497	-57.691000	-13.861497	-57.691000	-0.612487	-148.001799
9.250000	-0.652816	-162.942730	-13.807268	-58.408243	-13.807268	-58.408243	-0.620902	-148.710972
9.300000	-0.661633	-163.766487	-13.752839	-59.127660	-13.752839	-59.127660	-0.629434	-149.420826
9.350000	-0.670566	-164.592368	-13.698209	-59.849300	-13.698209	-59.849300	-0.638083	-150.131405
9.400000	-0.679616	-165.420443	-13.643374	-60.573214	-13.643374	-60.573214	-0.646852	-150.842754
9.450000	-0.688783	-166.250785	-13.588331	-61.299454	-13.588331	-61.299454	-0.655741	-151.554919
9.500000	-0.698070	-167.083466	-13.533078	-62.028072	-13.533078	-62.028072	-0.664753	-152.267946
9.550000	-0.707477	-167.918561	-13.477612	-62.759123	-13.477612	-62.759123	-0.673888	-152.981881
9.600000	-0.717005	-168.756143	-13.421930	-63.492660	-13.421930	-63.492660	-0.683149	-153.696771
9.650000	-0.726656	-169.596289	-13.366027	-64.228741	-13.366027	-64.228741	-0.692536	-154.412663
9.700000	-0.736430	-170.439074	-13.309901	-64.967424	-13.309901	-64.967424	-0.702051	-155.129606
9.750000	-0.746329	-171.284575	-13.253548	-65.708770	-13.253548	-65.708770	-0.711697	-155.847649
9.800000	-0.756354	-172.132871	-13.196963	-66.452841	-13.196963	-66.452841	-0.721473	-156.566841
9.850000	-0.766505	-172.984041	-13.140144	-67.199702	-13.140144	-67.199702	-0.731383	-157.287232
9.900000	-0.776785	-173.838164	-13.083085	-67.949420	-13.083085	-67.949420	-0.741427	-158.008872
9.950000	-0.787193	-174.695323	-13.025784	-68.702065	-13.025784	-68.702065	-0.751607	-158.731813
10.000000	-0.797732	-175.555597	-12.968235	-69.457709	-12.968235	-69.457709	-0.761924	-159.456107
