! freq	dB(S11)	phase(S11)	dB(S12)	phase(S12)	
!     	dB(S21)	phase(S21)	dB(S22)	phase(S22)	
!S-par simulation data
#  GHz  S  DB  R 50
0.000000	-0.000000	0.000000	-288.291188	0.000000	-288.291188	0.000000	0.000000	0.000000
0.050000	-0.000106	-0.869772	-65.364659	89.053868	-65.364659	89.053868	-0.000107	-0.870447
0.100000	-0.000422	-1.739290	-59.349200	88.113637	-59.349200	88.113637	-0.000422	-1.740640
0.150000	-0.000934	-2.608318	-55.835314	87.183888	-55.835314	87.183888	-0.000935	-2.610341
0.200000	-0.001624	-3.476657	-53.346505	86.267069	-53.346505	86.267069	-0.001626	-3.479353
0.250000	-0.002480	-4.344081	-51.419994	85.364705	-51.419994	85.364705	-0.002483	-4.347449
0.300000	-0.003462	-5.210540	-49.848621	84.474667	-49.848621	84.474667	-0.003467	-5.214577
0.350000	-0.004554	-6.075907	-48.522366	83.595928	-48.522366	83.595928	-0.004561	-6.080613
0.400000	-0.005733	-6.940125	-47.375376	82.726569	-47.375376	82.726569	-0.005741	-6.945497
0.450000	-0.006975	-7.803165	-46.365204	81.864705	-46.365204	81.864705	-0.006985	-7.809202
0.500000	-0.008261	-8.665023	-45.462907	81.008678	-45.462907	81.008678	-0.008273	-8.671723
0.550000	-0.009576	-9.525711	-44.647887	80.157131	-44.647887	80.157131	-0.009590	-9.533072
0.600000	-0.010907	-10.385252	-43.904966	79.309004	-43.904966	79.309004	-0.010923	-10.393272
0.650000	-0.012242	-11.243674	-43.222644	78.463503	-43.222644	78.463503	-0.012259	-11.252350
0.700000	-0.013573	-12.101006	-42.592000	77.620054	-42.592000	77.620054	-0.013593	-12.110338
0.750000	-0.014895	-12.957277	-42.005974	76.778255	-42.005974	76.778255	-0.014917	-12.967263
0.800000	-0.016205	-13.812512	-41.458882	75.937837	-41.458882	75.937837	-0.016229	-13.823150
0.850000	-0.017500	-14.666731	-40.946080	75.098632	-40.946080	75.098632	-0.017525	-14.678019
0.900000	-0.018778	-15.519949	-40.463722	74.260545	-40.463722	74.260545	-0.018805	-15.531885
0.950000	-0.020039	-16.372175	-40.008589	73.423534	-40.008589	73.423534	-0.020068	-16.384758
1.000000	-0.021284	-17.223414	-39.577956	72.587597	-39.577956	72.587597	-0.021315	-17.236643
1.050000	-0.022513	-18.073666	-39.169500	71.752761	-39.169500	71.752761	-0.022546	-18.087539
1.100000	-0.023728	-18.922926	-38.781218	70.919071	-38.781218	70.919071	-0.023762	-18.937441
1.150000	-0.024929	-19.771186	-38.411376	70.086588	-38.411376	70.086588	-0.024965	-19.786341
1.200000	-0.026118	-20.618434	-38.058459	69.255382	-38.058459	69.255382	-0.026155	-20.634227
1.250000	-0.027296	-21.464655	-37.721138	68.425527	-37.721138	68.425527	-0.027335	-21.481085
1.300000	-0.028465	-22.309786	-37.398319	67.597172	-37.398319	67.597172	-0.028505	-22.326851
1.350000	-0.029625	-23.153853	-37.088879	66.770339	-37.088879	66.770339	-0.029667	-23.171552
1.400000	-0.030778	-23.996836	-36.791887	65.945114	-36.791887	65.945114	-0.030821	-24.015167
1.450000	-0.031925	-24.838713	-36.506510	65.121579	-36.506510	65.121579	-0.031970	-24.857674
1.500000	-0.033067	-25.679462	-36.232000	64.299820	-36.232000	64.299820	-0.033113	-25.699050
1.550000	-0.034205	-26.519059	-35.967679	63.479920	-35.967679	63.479920	-0.034253	-26.539274
1.600000	-0.035339	-27.357483	-35.712936	62.661961	-35.712936	62.661961	-0.035389	-27.378322
1.650000	-0.036471	-28.194708	-35.467213	61.846025	-35.467213	61.846025	-0.036522	-28.216169
1.700000	-0.037601	-29.030275	-35.230628	61.032960	-35.230628	61.032960	-0.037653	-29.052356
1.750000	-0.038730	-29.865196	-35.001218	60.221019	-35.001218	60.221019	-0.038784	-29.887896
1.800000	-0.039859	-30.698561	-34.779834	59.411866	-34.779834	59.411866	-0.039914	-30.721877
1.850000	-0.040987	-31.530815	-34.565430	58.604704	-34.565430	58.604704	-0.041043	-31.554745
1.900000	-0.042115	-32.361683	-34.357986	57.800094	-34.357986	57.800094	-0.042173	-32.386225
1.950000	-0.043244	-33.191168	-34.157135	56.998037	-34.157135	56.998037	-0.043304	-33.216320
2.000000	-0.044374	-34.019458	-33.962297	56.198236	-33.962297	56.198236	-0.044435	-34.045218
2.050000	-0.045506	-34.846076	-33.773752	55.401596	-33.773752	55.401596	-0.045568	-34.872441
2.100000	-0.046638	-35.671957	-33.590080	54.606373	-33.590080	54.606373	-0.046702	-35.698926
2.150000	-0.047773	-36.495928	-33.412411	53.814839	-33.412411	53.814839	-0.047838	-36.523498
2.200000	-0.048911	-37.318453	-33.239929	53.026132	-33.239929	53.026132	-0.048977	-37.346622
2.250000	-0.050051	-38.139512	-33.072416	52.240318	-33.072416	52.240318	-0.050118	-38.168278
2.300000	-0.051194	-38.959086	-32.909667	51.457459	-32.909667	51.457459	-0.051263	-38.988447
2.350000	-0.052340	-39.777156	-32.751491	50.677619	-32.751491	50.677619	-0.052410	-39.807108
2.400000	-0.053489	-40.593702	-32.597707	49.900859	-32.597707	49.900859	-0.053561	-40.624244
2.450000	-0.054642	-41.408708	-32.448146	49.127238	-32.448146	49.127238	-0.054716	-41.439837
2.500000	-0.055799	-42.222155	-32.302646	48.356814	-32.302646	48.356814	-0.055874	-42.253869
2.550000	-0.056961	-43.033957	-32.161124	47.589791	-32.161124	47.589791	-0.057037	-43.066254
2.600000	-0.058127	-43.844167	-32.023367	46.826083	-32.023367	46.826083	-0.058205	-43.877043
2.650000	-0.059298	-44.652767	-31.889241	46.065747	-31.889241	46.065747	-0.059377	-44.686221
2.700000	-0.060474	-45.459743	-31.758615	45.308835	-31.758615	45.308835	-0.060555	-45.493773
2.750000	-0.061656	-46.265081	-31.631368	44.555401	-31.631368	44.555401	-0.061738	-46.299683
2.800000	-0.062843	-47.068765	-31.507382	43.805495	-31.507382	43.805495	-0.062927	-47.103938
2.850000	-0.064037	-47.870783	-31.386548	43.059166	-31.386548	43.059166	-0.064121	-47.906523
2.900000	-0.065237	-48.671121	-31.268758	42.316465	-31.268758	42.316465	-0.065323	-48.707427
2.950000	-0.066443	-49.469767	-31.153913	41.577437	-31.153913	41.577437	-0.066531	-49.506636
3.000000	-0.067657	-50.266709	-31.041914	40.842131	-31.041914	40.842131	-0.067746	-50.304139
3.050000	-0.068878	-51.061935	-30.932670	40.110590	-30.932670	40.110590	-0.068968	-51.099924
3.100000	-0.070106	-51.855435	-30.826093	39.382858	-30.826093	39.382858	-0.070198	-51.893980
3.150000	-0.071343	-52.647198	-30.722096	38.658979	-30.722096	38.658979	-0.071436	-52.686296
3.200000	-0.072588	-53.437214	-30.620598	37.938993	-30.620598	37.938993	-0.072683	-53.476864
3.250000	-0.073842	-54.225474	-30.521522	37.222941	-30.521522	37.222941	-0.073938	-54.265673
3.300000	-0.075105	-55.011970	-30.424791	36.510863	-30.424791	36.510863	-0.075203	-55.052715
3.350000	-0.076380	-55.796381	-30.330539	35.803503	-30.330539	35.803503	-0.076479	-55.837670
3.400000	-0.077664	-56.578935	-30.238538	35.100369	-30.238538	35.100369	-0.077765	-56.620765
3.450000	-0.078955	-57.360553	-30.148104	34.399378	-30.148104	34.399378	-0.079057	-57.402923
3.500000	-0.080262	-58.139364	-30.060397	33.704819	-30.060397	33.704819	-0.080365	-58.182271
3.550000	-0.081573	-58.917547	-29.973953	33.011713	-29.973953	33.011713	-0.081677	-58.960990
3.600000	-0.082903	-59.692590	-29.890278	32.325871	-29.890278	32.325871	-0.083010	-59.736565
3.650000	-0.084236	-60.467317	-29.807588	31.640767	-29.807588	31.640767	-0.084344	-60.511823
3.700000	-0.085592	-61.238570	-29.727702	30.963773	-29.727702	30.963773	-0.085702	-61.283604
3.750000	-0.086949	-62.009823	-29.648543	30.286780	-29.648543	30.286780	-0.087060	-62.055384
3.800000	-0.088332	-62.777269	-29.572214	29.618753	-29.572214	29.618753	-0.088445	-62.823353
3.850000	-0.089716	-63.544716	-29.496549	28.950726	-29.496549	28.950726	-0.089830	-63.591322
3.900000	-0.091126	-64.308662	-29.423388	28.291017	-29.423388	28.291017	-0.091242	-64.355787
3.950000	-0.092539	-65.072289	-29.351005	27.632064	-29.351005	27.632064	-0.092656	-65.119933
4.000000	-0.093978	-65.832728	-29.280822	26.980752	-29.280822	26.980752	-0.094097	-65.880886
4.050000	-0.095422	-66.592528	-29.211519	26.330968	-29.211519	26.330968	-0.095542	-66.641201
4.100000	-0.096891	-67.349457	-29.144133	25.688123	-29.144133	25.688123	-0.097012	-67.398641
4.150000	-0.098367	-68.105428	-29.077718	25.047591	-29.077718	25.047591	-0.098491	-68.155122
4.200000	-0.099867	-68.858846	-29.012956	24.413274	-29.012956	24.413274	-0.099992	-68.909047
4.250000	-0.101379	-69.610988	-28.949245	23.782064	-28.949245	23.782064	-0.101505	-69.661695
4.300000	-0.102912	-70.360900	-28.886946	23.156327	-28.886946	23.156327	-0.103040	-70.412111
4.350000	-0.104460	-71.109218	-28.825763	22.534497	-28.825763	22.534497	-0.104590	-71.160932
4.400000	-0.106027	-71.855630	-28.765769	21.917380	-28.765769	21.917380	-0.106159	-71.907844
4.450000	-0.107614	-72.600135	-28.706945	21.304975	-28.706945	21.304975	-0.107747	-72.652847
4.500000	-0.109218	-73.343057	-28.649108	20.696510	-28.649108	20.696510	-0.109352	-73.396266
4.550000	-0.110845	-74.083761	-28.592479	20.093561	-28.592479	20.093561	-0.110981	-74.137466
4.600000	-0.112486	-74.823206	-28.536657	19.493770	-28.536657	19.493770	-0.112624	-74.877405
4.650000	-0.114155	-75.560129	-28.482066	18.900293	-28.482066	18.900293	-0.114295	-75.614819
4.700000	-0.115835	-76.296112	-28.428121	18.309185	-28.428121	18.309185	-0.115977	-76.351293
4.750000	-0.117549	-77.029275	-28.375416	17.725183	-28.375416	17.725183	-0.117692	-77.084945
4.800000	-0.119270	-77.761815	-28.323214	17.142757	-28.323214	17.142757	-0.119415	-77.817974
4.850000	-0.121029	-78.491244	-28.272247	16.568217	-28.272247	16.568217	-0.121176	-78.547888
4.900000	-0.122793	-79.220364	-28.221662	15.994462	-28.221662	15.994462	-0.122941	-79.277494
4.950000	-0.124600	-79.946087	-28.172290	15.429354	-28.172290	15.429354	-0.124750	-80.003701
5.000000	-0.126407	-80.671811	-28.123197	14.864246	-28.123197	14.864246	-0.126560	-80.729908
5.050000	-0.128264	-81.393864	-28.075280	14.308524	-28.075280	14.308524	-0.128418	-81.452441
5.100000	-0.130121	-82.115916	-28.027625	13.752803	-28.027625	13.752803	-0.130277	-82.174974
5.150000	-0.132026	-82.834637	-27.980961	13.205627	-27.980961	13.205627	-0.132184	-82.894174
5.200000	-0.133935	-83.553056	-27.934612	12.659229	-27.934612	12.659229	-0.134094	-83.613070
5.250000	-0.135888	-84.268479	-27.889085	12.120531	-27.889085	12.120531	-0.136049	-84.328970
5.300000	-0.137850	-84.983303	-27.843910	11.583374	-27.843910	11.583374	-0.138014	-85.044270
5.350000	-0.139854	-85.695465	-27.799408	11.053072	-27.799408	11.053072	-0.140019	-85.756907
5.400000	-0.141871	-86.406739	-27.755279	10.525054	-27.755279	10.525054	-0.142039	-86.468656
5.450000	-0.143927	-87.115678	-27.711694	10.003049	-27.711694	10.003049	-0.144097	-87.178068
5.500000	-0.146002	-87.823449	-27.668486	9.484049	-27.668486	9.484049	-0.146173	-87.886313
5.550000	-0.148111	-88.529207	-27.625712	8.970226	-27.625712	8.970226	-0.148285	-88.592542
5.600000	-0.150245	-89.233526	-27.583303	8.460101	-27.583303	8.460101	-0.150420	-89.297333
5.650000	-0.152409	-89.936146	-27.541235	7.954329	-27.541235	7.954329	-0.152587	-90.000424
5.700000	-0.154604	-90.637067	-27.499505	7.452911	-27.499505	7.452911	-0.154784	-90.701816
5.750000	-0.156824	-91.336595	-27.458043	6.955043	-27.458043	6.955043	-0.157006	-91.401814
5.800000	-0.159082	-92.034174	-27.416874	6.462143	-27.416874	6.462143	-0.159266	-92.099862
5.850000	-0.161361	-92.730659	-27.375921	5.972011	-27.375921	5.972011	-0.161547	-92.796817
5.900000	-0.163682	-93.424955	-27.335200	5.487413	-27.335200	5.487413	-0.163871	-93.491583
5.950000	-0.166021	-94.118447	-27.294658	5.004832	-27.294658	5.004832	-0.166212	-94.185543
6.000000	-0.168409	-94.809524	-27.254273	4.528296	-27.254273	4.528296	-0.168602	-94.877089
6.050000	-0.170809	-95.500076	-27.214050	4.053059	-27.214050	4.053059	-0.171004	-95.568110
6.100000	-0.173265	-96.187999	-27.173892	3.584317	-27.173892	3.584317	-0.173462	-96.256502
6.150000	-0.175727	-96.875665	-27.133898	3.116200	-27.133898	3.116200	-0.175927	-96.944636
6.200000	-0.178253	-97.560502	-27.093861	2.654957	-27.093861	2.654957	-0.178455	-97.629943
6.250000	-0.180780	-98.245339	-27.054008	2.193713	-27.054008	2.193713	-0.180984	-98.315249
6.300000	-0.183377	-98.927161	-27.013990	1.739643	-27.013990	1.739643	-0.183584	-98.997540
6.350000	-0.185975	-99.608983	-26.974156	1.285573	-26.974156	1.285573	-0.186184	-99.679832
6.400000	-0.188640	-100.288108	-26.934096	0.837757	-26.934096	0.837757	-0.188852	-100.359428
6.450000	-0.191311	-100.966989	-26.894183	0.390508	-26.894183	0.390508	-0.191525	-101.038778
6.500000	-0.194045	-101.643481	-26.854001	-0.051374	-26.854001	-0.051374	-0.194262	-101.715742
6.550000	-0.196792	-102.319495	-26.813915	-0.492183	-26.813915	-0.492183	-0.197011	-102.392228
6.600000	-0.199595	-102.993419	-26.773537	-0.928471	-26.773537	-0.928471	-0.199817	-103.066624
6.650000	-0.202419	-103.666646	-26.733188	-1.363251	-26.733188	-1.363251	-0.202643	-103.740324
6.700000	-0.205295	-104.338068	-26.692543	-1.794304	-26.692543	-1.794304	-0.205521	-104.412220
6.750000	-0.208197	-105.008588	-26.651846	-2.223494	-26.651846	-2.223494	-0.208426	-105.083215
6.800000	-0.211145	-105.677577	-26.610866	-2.649695	-26.610866	-2.649695	-0.211377	-105.752680
6.850000	-0.214128	-106.345473	-26.569741	-3.073761	-26.569741	-3.073761	-0.214362	-106.421053
6.900000	-0.217151	-107.012100	-26.528363	-3.495511	-26.528363	-3.495511	-0.217388	-107.088158
6.950000	-0.220215	-107.677458	-26.486736	-3.914944	-26.486736	-3.914944	-0.220455	-107.753995
7.000000	-0.223315	-108.341795	-26.444903	-4.332662	-26.444903	-4.332662	-0.223557	-108.418812
7.050000	-0.226463	-109.004701	-26.402705	-4.747979	-26.402705	-4.747979	-0.226708	-109.082200
7.100000	-0.229639	-109.666821	-26.360363	-5.162101	-26.360363	-5.162101	-0.229887	-109.744803
7.150000	-0.232873	-110.327366	-26.317532	-5.573837	-26.317532	-5.573837	-0.233123	-110.405833
7.200000	-0.236128	-110.987345	-26.274633	-5.984815	-26.274633	-5.984815	-0.236381	-111.066297
7.250000	-0.239448	-111.645621	-26.231115	-6.393524	-26.231115	-6.393524	-0.239704	-111.725061
7.300000	-0.242784	-112.303534	-26.187617	-6.801823	-26.187617	-6.801823	-0.243043	-112.383463
7.350000	-0.246193	-112.959635	-26.143362	-7.208074	-26.143362	-7.208074	-0.246455	-113.040055
7.400000	-0.249610	-113.615562	-26.099229	-7.614167	-26.099229	-7.614167	-0.249875	-113.696475
7.450000	-0.253109	-114.269583	-26.054198	-8.018537	-26.054198	-8.018537	-0.253377	-114.350992
7.500000	-0.256610	-114.923604	-26.009399	-8.422907	-26.009399	-8.422907	-0.256880	-115.005509
7.550000	-0.260200	-115.575644	-25.963558	-8.825980	-25.963558	-8.825980	-0.260474	-115.658048
7.600000	-0.263793	-116.227684	-25.917959	-9.229052	-25.917959	-9.229052	-0.264069	-116.310588
7.650000	-0.267469	-116.877999	-25.871394	-9.631469	-25.871394	-9.631469	-0.267748	-116.961408
7.700000	-0.271155	-117.528157	-25.824970	-10.033826	-25.824970	-10.033826	-0.271437	-117.612071
7.750000	-0.274919	-118.176832	-25.777671	-10.436067	-25.777671	-10.436067	-0.275204	-118.261255
7.800000	-0.278699	-118.825211	-25.730405	-10.838285	-25.730405	-10.838285	-0.278987	-118.910144
7.850000	-0.282551	-119.472334	-25.682368	-11.240822	-25.682368	-11.240822	-0.282842	-119.557780
7.900000	-0.286428	-120.119037	-25.634253	-11.643464	-25.634253	-11.643464	-0.286723	-120.204999
7.950000	-0.290370	-120.764694	-25.585477	-12.046753	-25.585477	-12.046753	-0.290668	-120.851176
8.000000	-0.294345	-121.409829	-25.536514	-12.450366	-25.536514	-12.450366	-0.294646	-121.496831
8.050000	-0.298378	-122.054111	-25.487008	-12.854847	-25.487008	-12.854847	-0.298682	-122.141637
8.100000	-0.302452	-122.697783	-25.437202	-13.259950	-25.437202	-13.259950	-0.302759	-122.785838
8.150000	-0.306577	-123.340781	-25.386978	-13.666043	-25.386978	-13.666043	-0.306887	-123.429365
8.200000	-0.310753	-123.983102	-25.336345	-14.073125	-25.336345	-14.073125	-0.311066	-124.072221
8.250000	-0.314971	-124.624907	-25.285420	-14.481222	-25.285420	-14.481222	-0.315287	-124.714563
8.300000	-0.319248	-125.265990	-25.233980	-14.890739	-25.233980	-14.890739	-0.319568	-125.356186
8.350000	-0.323561	-125.906697	-25.182378	-15.301203	-25.182378	-15.301203	-0.323884	-125.997436
8.400000	-0.327943	-126.546654	-25.130157	-15.713565	-25.130157	-15.713565	-0.328269	-126.637941
8.450000	-0.332351	-127.186358	-25.077904	-16.126730	-25.077904	-16.126730	-0.332681	-127.278196
8.500000	-0.336837	-127.825305	-25.024934	-16.542302	-25.024934	-16.542302	-0.337171	-127.917699
8.550000	-0.341343	-128.464104	-24.972058	-16.958463	-24.972058	-16.958463	-0.341679	-128.557055
8.600000	-0.345936	-129.102160	-24.918374	-17.377562	-24.918374	-17.377562	-0.346275	-129.195675
8.650000	-0.350539	-129.740152	-24.864909	-17.796976	-24.864909	-17.796976	-0.350882	-129.834232
8.700000	-0.355239	-130.377436	-24.810549	-18.219864	-24.810549	-18.219864	-0.355586	-130.472089
8.750000	-0.359942	-131.014721	-24.756527	-18.642752	-24.756527	-18.642752	-0.360292	-131.109947
8.800000	-0.364750	-131.651356	-24.701532	-19.069637	-24.701532	-19.069637	-0.365104	-131.747164
8.850000	-0.369562	-132.287992	-24.646882	-19.496521	-24.646882	-19.496521	-0.369919	-132.384381
8.900000	-0.374472	-132.924146	-24.591398	-19.927209	-24.591398	-19.927209	-0.374832	-133.021126
8.950000	-0.379393	-133.560257	-24.536159	-20.358243	-24.536159	-20.358243	-0.379757	-133.657828
9.000000	-0.384405	-134.196035	-24.480222	-20.792815	-24.480222	-20.792815	-0.384773	-134.294206
9.050000	-0.389437	-134.831748	-24.424434	-21.228094	-24.424434	-21.228094	-0.389809	-134.930519
9.100000	-0.394552	-135.467258	-24.368077	-21.666591	-24.368077	-21.666591	-0.394927	-135.566638
9.150000	-0.399697	-136.102700	-24.311777	-22.106160	-24.311777	-22.106160	-0.400075	-136.202693
9.200000	-0.404916	-136.738051	-24.255032	-22.548583	-24.255032	-22.548583	-0.405298	-136.838661
9.250000	-0.410173	-137.373354	-24.198253	-22.992433	-24.198253	-22.992433	-0.410559	-137.474588
9.300000	-0.415497	-138.008655	-24.141148	-23.438748	-24.141148	-23.438748	-0.415886	-138.110518
9.350000	-0.420868	-138.643954	-24.083921	-23.886824	-24.083921	-23.886824	-0.421261	-138.746450
9.400000	-0.426297	-139.279318	-24.026479	-24.336963	-24.026479	-24.336963	-0.426694	-139.382454
9.450000	-0.431783	-139.914747	-23.968829	-24.789165	-23.968829	-24.789165	-0.432184	-140.018528
9.500000	-0.437318	-140.550287	-23.911071	-25.243029	-23.911071	-25.243029	-0.437722	-140.654720
9.550000	-0.442920	-141.185985	-23.853016	-25.699220	-23.853016	-25.699220	-0.443328	-141.291075
9.600000	-0.448562	-141.821819	-23.794957	-26.156683	-23.794957	-26.156683	-0.448973	-141.927571
9.650000	-0.454280	-142.457925	-23.736510	-26.616692	-23.736510	-26.616692	-0.454695	-142.564348
9.700000	-0.460029	-143.094170	-23.678159	-27.077607	-23.678159	-27.077607	-0.460448	-143.201267
9.750000	-0.465863	-143.730829	-23.619323	-27.541238	-23.619323	-27.541238	-0.466287	-143.838610
9.800000	-0.471720	-144.367604	-23.560686	-28.005437	-23.560686	-28.005437	-0.472147	-144.476072
9.850000	-0.477672	-145.004962	-23.501458	-28.472473	-23.501458	-28.472473	-0.478103	-145.114127
9.900000	-0.483637	-145.642390	-23.442531	-28.939774	-23.442531	-28.939774	-0.484072	-145.752254
9.950000	-0.489707	-146.280594	-23.382900	-29.409986	-23.382900	-29.409986	-0.490145	-146.391171
10.000000	-0.495780	-146.918799	-23.323675	-29.880197	-23.323675	-29.880197	-0.496223	-147.030088
