! freq	dB(S11)	phase(S11)	dB(S12)	phase(S12)	
!     	dB(S21)	phase(S21)	dB(S22)	phase(S22)	
!S-par simulation data
#  GHz  S  DB  R 50
0.000000	-0.000000	0.000000	-336.131144	0.000000	-336.131144	0.000000	-0.000000	0.000000
0.050000	-0.000104	-0.831316	-69.972537	88.041086	-69.972537	88.041086	-0.000104	-0.831502
0.100000	-0.000411	-1.662383	-64.082442	86.869030	-64.082442	86.869030	-0.000411	-1.662755
0.150000	-0.000910	-2.492970	-60.651634	86.114921	-60.651634	86.114921	-0.000910	-2.493527
0.200000	-0.001581	-3.322884	-58.208278	85.457967	-58.208278	85.457967	-0.001582	-3.323625
0.250000	-0.002412	-4.151906	-56.305225	84.796829	-56.305225	84.796829	-0.002413	-4.152832
0.300000	-0.003364	-4.979992	-54.745820	84.112023	-54.745820	84.112023	-0.003365	-4.981102
0.350000	-0.004420	-5.807025	-53.425256	83.403255	-53.425256	83.403255	-0.004422	-5.808318
0.400000	-0.005556	-6.632954	-52.280624	82.674717	-52.280624	82.674717	-0.005558	-6.634431
0.450000	-0.006751	-7.457760	-51.271113	81.930814	-51.271113	81.930814	-0.006754	-7.459419
0.500000	-0.007986	-8.281445	-50.368705	81.175177	-50.368705	81.175177	-0.007989	-8.283286
0.550000	-0.009246	-9.104025	-49.553327	80.410615	-49.553327	80.410615	-0.009249	-9.106048
0.600000	-0.010517	-9.925530	-48.810100	79.639272	-48.810100	79.639272	-0.010521	-9.927734
0.650000	-0.011790	-10.745992	-48.127687	78.862793	-48.127687	78.862793	-0.011794	-10.748377
0.700000	-0.013057	-11.565443	-47.497255	78.082451	-47.497255	78.082451	-0.013062	-11.568008
0.750000	-0.014314	-12.383915	-46.911785	77.299251	-46.911785	77.299251	-0.014319	-12.386659
0.800000	-0.015556	-13.201434	-46.365609	76.513994	-46.365609	76.513994	-0.015562	-13.204358
0.850000	-0.016782	-14.018023	-45.854082	75.727331	-45.854082	75.727331	-0.016788	-14.021126
0.900000	-0.017992	-14.833698	-45.373354	74.939801	-45.373354	74.939801	-0.017998	-14.836979
0.950000	-0.019184	-15.648470	-44.920192	74.151855	-44.920192	74.151855	-0.019191	-15.651930
1.000000	-0.020360	-16.462346	-44.491862	73.363878	-44.491862	73.363878	-0.020367	-16.465983
1.050000	-0.021519	-17.275327	-44.086024	72.576203	-44.086024	72.576203	-0.021527	-17.279141
1.100000	-0.022664	-18.087410	-43.700665	71.789120	-43.700665	71.789120	-0.022672	-18.091400
1.150000	-0.023795	-18.898587	-43.334040	71.002887	-43.334040	71.002887	-0.023804	-18.902754
1.200000	-0.024915	-19.708850	-42.984622	70.217736	-42.984622	70.217736	-0.024923	-19.713193
1.250000	-0.026023	-20.518186	-42.651074	69.433879	-42.651074	69.433879	-0.026031	-20.522704
1.300000	-0.027121	-21.326538	-42.332318	68.651580	-42.332318	68.651580	-0.027130	-21.331231
1.350000	-0.028210	-22.133931	-42.027198	67.870960	-42.027198	67.870960	-0.028219	-22.138797
1.400000	-0.029292	-22.940345	-41.734778	67.092185	-41.734778	67.092185	-0.029302	-22.945385
1.450000	-0.030368	-23.745762	-41.454219	66.315411	-41.454219	66.315411	-0.030378	-23.750975
1.500000	-0.031438	-24.550162	-41.184767	65.540786	-41.184767	65.540786	-0.031449	-24.555547
1.550000	-0.032504	-25.353524	-40.925742	64.768450	-40.925742	64.768450	-0.032515	-25.359081
1.600000	-0.033567	-26.155828	-40.676526	63.998538	-40.676526	63.998538	-0.033578	-26.161556
1.650000	-0.034626	-26.957052	-40.436560	63.231181	-40.436560	63.231181	-0.034637	-26.962950
1.700000	-0.035682	-27.756781	-40.206149	62.467494	-40.206149	62.467494	-0.035693	-27.762850
1.750000	-0.036737	-28.555929	-39.982871	61.705249	-39.982871	61.705249	-0.036749	-28.562167
1.800000	-0.037790	-29.353674	-39.767963	60.946618	-39.767963	60.946618	-0.037803	-29.360081
1.850000	-0.038843	-30.150417	-39.560179	60.190570	-39.560179	60.190570	-0.038856	-30.156992
1.900000	-0.039895	-30.945913	-39.359601	59.437868	-39.359601	59.437868	-0.039908	-30.952654
1.950000	-0.040948	-31.740160	-39.165848	58.688512	-39.165848	58.688512	-0.040961	-31.747068
2.000000	-0.042000	-32.533330	-38.978257	57.942145	-38.978257	57.942145	-0.042014	-32.540404
2.050000	-0.043054	-33.324993	-38.797283	57.199962	-38.797283	57.199962	-0.043068	-33.332232
2.100000	-0.044108	-34.115991	-38.621142	56.459669	-38.621142	56.459669	-0.044122	-34.123395
2.150000	-0.045164	-34.905266	-38.451398	55.724303	-38.451398	55.724303	-0.045178	-34.912834
2.200000	-0.046221	-35.693236	-38.287047	54.992732	-38.287047	54.992732	-0.046236	-35.700967
2.250000	-0.047281	-36.479884	-38.127872	54.265060	-38.127872	54.265060	-0.047296	-36.487776
2.300000	-0.048342	-37.265190	-37.973666	53.541389	-37.973666	53.541389	-0.048358	-37.273244
2.350000	-0.049407	-38.049137	-37.824237	52.821819	-37.824237	52.821819	-0.049422	-38.057352
2.400000	-0.050474	-38.831708	-37.679402	52.106450	-37.679402	52.106450	-0.050490	-38.840083
2.450000	-0.051544	-39.612887	-37.538991	51.395380	-37.538991	51.395380	-0.051561	-39.621421
2.500000	-0.052618	-40.392656	-37.402842	50.688709	-37.402842	50.688709	-0.052635	-40.401348
2.550000	-0.053696	-41.170937	-37.270888	49.986732	-37.270888	49.986732	-0.053713	-41.179787
2.600000	-0.054778	-41.947776	-37.142897	49.289357	-37.142897	49.289357	-0.054795	-41.956783
2.650000	-0.055864	-42.723157	-37.018729	48.596678	-37.018729	48.596678	-0.055882	-42.732320
2.700000	-0.056955	-43.497067	-36.898255	47.908791	-36.898255	47.908791	-0.056973	-43.506386
2.750000	-0.058051	-44.269492	-36.781350	47.225790	-36.781350	47.225790	-0.058070	-44.278964
2.800000	-0.059153	-45.040416	-36.667895	46.547769	-36.667895	46.547769	-0.059171	-45.050043
2.850000	-0.060260	-45.809828	-36.557777	45.874822	-36.557777	45.874822	-0.060279	-45.819607
2.900000	-0.061373	-46.577715	-36.450888	45.207041	-36.450888	45.207041	-0.061392	-46.587646
2.950000	-0.062493	-47.344063	-36.347124	44.544518	-36.347124	44.544518	-0.062512	-47.354145
3.000000	-0.063619	-48.108862	-36.246386	43.887344	-36.246386	43.887344	-0.063639	-48.119094
3.050000	-0.064753	-48.872099	-36.148579	43.235611	-36.148579	43.235611	-0.064772	-48.882481
3.100000	-0.065893	-49.633764	-36.053611	42.589408	-36.053611	42.589408	-0.065913	-49.644295
3.150000	-0.067042	-50.393846	-35.961394	41.948825	-35.961394	41.948825	-0.067062	-50.404524
3.200000	-0.068199	-51.152335	-35.871842	41.313950	-35.871842	41.313950	-0.068219	-51.163161
3.250000	-0.069364	-51.909222	-35.784875	40.684871	-35.784875	40.684871	-0.069385	-51.920193
3.300000	-0.070538	-52.664496	-35.700412	40.061676	-35.700412	40.061676	-0.070559	-52.675613
3.350000	-0.071723	-53.417865	-35.618653	39.445515	-35.618653	39.445515	-0.071745	-53.429126
3.400000	-0.072918	-54.169534	-35.539311	38.835676	-35.539311	38.835676	-0.072940	-54.180939
3.450000	-0.074119	-54.920346	-35.461494	38.229075	-35.461494	38.229075	-0.074141	-54.931894
3.500000	-0.075336	-55.668586	-35.386764	37.632186	-35.386764	37.632186	-0.075358	-55.680276
3.550000	-0.076556	-56.416250	-35.313187	37.037516	-35.313187	37.037516	-0.076579	-56.428081
3.600000	-0.077797	-57.161032	-35.242784	36.453940	-35.242784	36.453940	-0.077820	-57.173003
3.650000	-0.079039	-57.905524	-35.173194	35.871502	-35.173194	35.871502	-0.079062	-57.917635
3.700000	-0.080304	-58.646821	-35.106847	35.301589	-35.106847	35.301589	-0.080328	-58.659070
3.750000	-0.081569	-59.388118	-35.041004	34.731677	-35.041004	34.731677	-0.081594	-59.400505
3.800000	-0.082861	-60.125908	-34.978453	34.175770	-34.978453	34.175770	-0.082886	-60.138432
3.850000	-0.084153	-60.863698	-34.916349	33.619863	-34.916349	33.619863	-0.084178	-60.876359
3.900000	-0.085472	-61.598257	-34.857121	33.077097	-34.857121	33.077097	-0.085497	-61.611053
3.950000	-0.086792	-62.332522	-34.798513	32.535525	-34.798513	32.535525	-0.086818	-62.345453
4.000000	-0.088138	-63.063837	-34.742389	32.006164	-34.742389	32.006164	-0.088164	-63.076902
4.050000	-0.089489	-63.794563	-34.687041	31.479245	-34.687041	31.479245	-0.089516	-63.807761
4.100000	-0.090864	-64.522626	-34.633811	30.963542	-34.633811	30.963542	-0.090891	-64.535956
4.150000	-0.092248	-65.249802	-34.581492	30.451577	-34.581492	30.451577	-0.092275	-65.263263
4.200000	-0.093653	-65.974607	-34.530953	29.949771	-34.530953	29.949771	-0.093681	-65.988199
4.250000	-0.095071	-66.698226	-34.481436	29.453045	-34.481436	29.453045	-0.095098	-66.711948
4.300000	-0.096509	-67.419769	-34.433390	28.965362	-34.433390	28.965362	-0.096537	-67.433620
4.350000	-0.097962	-68.139829	-34.386453	28.484138	-34.386453	28.484138	-0.097990	-68.153809
4.400000	-0.099433	-68.858110	-34.340706	28.010787	-34.340706	28.010787	-0.099462	-68.872217
4.450000	-0.100924	-69.574611	-34.296131	27.545308	-34.296131	27.545308	-0.100953	-69.588846
4.500000	-0.102431	-70.289632	-34.252493	27.086480	-34.252493	27.086480	-0.102461	-70.303993
4.550000	-0.103961	-71.002580	-34.210063	26.636962	-34.210063	26.636962	-0.103991	-71.017066
4.600000	-0.105505	-71.714346	-34.168347	26.192826	-34.168347	26.192826	-0.105535	-71.728956
4.650000	-0.107076	-72.423748	-34.127845	25.759456	-34.127845	25.759456	-0.107106	-72.438482
4.700000	-0.108658	-73.132266	-34.087867	25.330160	-34.087867	25.330160	-0.108689	-73.147124
4.750000	-0.110272	-73.838134	-34.049079	24.913090	-34.049079	24.913090	-0.110303	-73.853115
4.800000	-0.111893	-74.543416	-34.010656	24.498756	-34.010656	24.498756	-0.111925	-74.558518
4.850000	-0.113552	-75.245765	-33.973367	24.098102	-33.973367	24.098102	-0.113584	-75.260988
4.900000	-0.115215	-75.947822	-33.936318	23.698822	-33.936318	23.698822	-0.115248	-75.963167
4.950000	-0.116920	-76.646671	-33.900314	23.314656	-33.900314	23.314656	-0.116953	-76.662135
5.000000	-0.118626	-77.345520	-33.864459	22.930490	-33.864459	22.930490	-0.118659	-77.361104
5.050000	-0.120380	-78.040890	-33.829525	22.562838	-33.829525	22.562838	-0.120413	-78.056592
5.100000	-0.122133	-78.736261	-33.794731	22.195186	-33.794731	22.195186	-0.122168	-78.752081
5.150000	-0.123933	-79.428466	-33.760604	21.842645	-33.760604	21.842645	-0.123968	-79.444403
5.200000	-0.125737	-80.120383	-33.726659	21.491478	-33.726659	21.491478	-0.125772	-80.136437
5.250000	-0.127584	-80.809446	-33.693158	21.153977	-33.693158	21.153977	-0.127619	-80.825616
5.300000	-0.129439	-81.497938	-33.659849	20.819209	-33.659849	20.819209	-0.129475	-81.514223
5.350000	-0.131335	-82.183885	-33.626793	20.496626	-33.626793	20.496626	-0.131371	-82.200285
5.400000	-0.133244	-82.868983	-33.593906	20.178106	-33.593906	20.178106	-0.133281	-82.885498
5.450000	-0.135190	-83.551842	-33.561116	19.870270	-33.561116	19.870270	-0.135228	-83.568470
5.500000	-0.137155	-84.233581	-33.528437	19.567776	-33.528437	19.567776	-0.137193	-84.250322
5.550000	-0.139153	-84.913382	-33.495736	19.274458	-33.495736	19.274458	-0.139191	-84.930236
5.600000	-0.141174	-85.591799	-33.463054	18.987695	-33.463054	18.987695	-0.141213	-85.608765
5.650000	-0.143225	-86.268575	-33.430264	18.708607	-33.430264	18.708607	-0.143264	-86.285653
5.700000	-0.145305	-86.943710	-33.397367	18.437196	-33.397367	18.437196	-0.145345	-86.960899
5.750000	-0.147411	-87.617496	-33.364315	18.171989	-33.364315	18.171989	-0.147451	-87.634796
5.800000	-0.149551	-88.289392	-33.330997	17.915467	-33.330997	17.915467	-0.149592	-88.306802
5.850000	-0.151713	-88.960224	-33.297511	17.663724	-33.297511	17.663724	-0.151754	-88.977744
5.900000	-0.153915	-89.628927	-33.263566	17.421540	-33.263566	17.421540	-0.153957	-89.646556
5.950000	-0.156134	-90.296844	-33.229480	17.182778	-33.229480	17.182778	-0.156176	-90.314581
6.000000	-0.158400	-90.962402	-33.194710	16.954286	-33.194710	16.954286	-0.158443	-90.980248
6.050000	-0.160678	-91.627444	-33.159862	16.727953	-33.159862	16.727953	-0.160721	-91.645398
6.100000	-0.163010	-92.289908	-33.124073	16.512414	-33.124073	16.512414	-0.163054	-92.307969
6.150000	-0.165348	-92.952118	-33.088306	16.297886	-33.088306	16.297886	-0.165392	-92.970286
6.200000	-0.167746	-93.611541	-33.051313	16.094468	-33.051313	16.094468	-0.167791	-93.629816
6.250000	-0.170146	-94.270963	-33.014478	15.891051	-33.014478	15.891051	-0.170191	-94.289345
6.300000	-0.172613	-94.927401	-32.976107	15.698828	-32.976107	15.698828	-0.172659	-94.945888
6.350000	-0.175081	-95.583838	-32.937905	15.506606	-32.937905	15.506606	-0.175128	-95.602432
6.400000	-0.177613	-96.237593	-32.898149	15.323715	-32.898149	15.323715	-0.177660	-96.256291
6.450000	-0.180152	-96.891103	-32.858419	15.141672	-32.858419	15.141672	-0.180199	-96.909906
6.500000	-0.182750	-97.542224	-32.817157	14.967197	-32.817157	14.967197	-0.182798	-97.561132
6.550000	-0.185360	-98.192867	-32.775750	14.794235	-32.775750	14.794235	-0.185409	-98.211880
6.600000	-0.188025	-98.841407	-32.732874	14.627202	-32.732874	14.627202	-0.188074	-98.860524
6.650000	-0.190709	-99.489246	-32.689657	14.462146	-32.689657	14.462146	-0.190758	-99.508467
6.700000	-0.193442	-100.135259	-32.645071	14.301530	-32.645071	14.301530	-0.193493	-100.154582
6.750000	-0.196201	-100.780358	-32.599926	14.143135	-32.599926	14.143135	-0.196252	-100.799785
6.800000	-0.199004	-101.423898	-32.553550	13.987870	-32.553550	13.987870	-0.199056	-101.443428
6.850000	-0.201840	-102.066324	-32.506379	13.834839	-32.506379	13.834839	-0.201892	-102.085957
6.900000	-0.204714	-102.707448	-32.458146	13.683819	-32.458146	13.683819	-0.204767	-102.727184
6.950000	-0.207628	-103.347270	-32.408870	13.534811	-32.408870	13.534811	-0.207681	-103.367108
7.000000	-0.210575	-103.986036	-32.358730	13.386910	-32.358730	13.386910	-0.210629	-104.005977
7.050000	-0.213568	-104.623325	-32.307289	13.240557	-32.307289	13.240557	-0.213622	-104.643368
7.100000	-0.216588	-105.259793	-32.255208	13.094631	-32.255208	13.094631	-0.216644	-105.279938
7.150000	-0.219663	-105.894621	-32.201564	12.949555	-32.201564	12.949555	-0.219718	-105.914868
7.200000	-0.222758	-106.528853	-32.147525	12.804455	-32.147525	12.804455	-0.222815	-106.549201
7.250000	-0.225915	-107.161295	-32.091661	12.659284	-32.091661	12.659284	-0.225972	-107.181745
7.300000	-0.229086	-107.793352	-32.035662	12.513872	-32.035662	12.513872	-0.229144	-107.813904
7.350000	-0.232327	-108.423485	-31.977581	12.367256	-31.977581	12.367256	-0.232386	-108.444138
7.400000	-0.235576	-109.053431	-31.919638	12.220410	-31.919638	12.220410	-0.235635	-109.074186
7.450000	-0.238903	-109.681333	-31.859365	12.071041	-31.859365	12.071041	-0.238962	-109.702189
7.500000	-0.242230	-110.309235	-31.799508	11.921673	-31.799508	11.921673	-0.242291	-110.330192
7.550000	-0.245643	-110.934985	-31.737088	11.768300	-31.737088	11.768300	-0.245704	-110.956045
7.600000	-0.249058	-111.560736	-31.675114	11.614928	-31.675114	11.614928	-0.249120	-111.581897
7.650000	-0.252552	-112.184591	-31.610858	11.456806	-31.610858	11.456806	-0.252615	-112.205853
7.700000	-0.256055	-112.808273	-31.546829	11.298253	-31.546829	11.298253	-0.256118	-112.829636
7.750000	-0.259631	-113.430300	-31.480814	11.134473	-31.480814	11.134473	-0.259695	-113.451765
7.800000	-0.263224	-114.051997	-31.414809	10.969648	-31.414809	10.969648	-0.263288	-114.073563
7.850000	-0.266883	-114.672269	-31.347122	10.799377	-31.347122	10.799377	-0.266949	-114.693937
7.900000	-0.270567	-115.292066	-31.279237	10.627289	-31.279237	10.627289	-0.270633	-115.313835
7.950000	-0.274311	-115.910655	-31.209974	10.449772	-31.209974	10.449772	-0.274378	-115.932526
8.000000	-0.278086	-116.528639	-31.140314	10.269541	-31.140314	10.269541	-0.278154	-116.550612
8.050000	-0.281916	-117.145618	-31.069580	10.084112	-31.069580	10.084112	-0.281984	-117.167693
8.100000	-0.285785	-117.761879	-30.998263	9.894970	-30.998263	9.894970	-0.285854	-117.784056
8.150000	-0.289701	-118.377324	-30.926167	9.701053	-30.926167	9.701053	-0.289771	-118.399603
8.200000	-0.293665	-118.991951	-30.853317	9.502359	-30.853317	9.502359	-0.293735	-119.014333
8.250000	-0.297668	-119.605937	-30.779975	9.299468	-30.779975	9.299468	-0.297740	-119.628422
8.300000	-0.301728	-120.219024	-30.705723	9.090703	-30.705723	9.090703	-0.301800	-120.241612
8.350000	-0.305820	-120.831629	-30.631252	8.878449	-30.631252	8.878449	-0.305893	-120.854320
8.400000	-0.309976	-121.443270	-30.555730	8.659218	-30.555730	8.659218	-0.310050	-121.466064
8.450000	-0.314158	-122.054572	-30.480246	8.437302	-30.480246	8.437302	-0.314232	-122.077470
8.500000	-0.318412	-122.664862	-30.403589	8.207334	-30.403589	8.207334	-0.318488	-122.687863
8.550000	-0.322685	-123.274942	-30.327209	7.975551	-30.327209	7.975551	-0.322761	-123.298047
8.600000	-0.327038	-123.883978	-30.249548	7.734692	-30.249548	7.734692	-0.327115	-123.907187
8.650000	-0.331402	-124.492917	-30.172387	7.492923	-30.172387	7.492923	-0.331479	-124.516232
8.700000	-0.335855	-125.100798	-30.093851	7.241133	-30.093851	7.241133	-0.335933	-125.124218
8.750000	-0.340311	-125.708680	-30.016018	6.989343	-30.016018	6.989343	-0.340390	-125.732204
8.800000	-0.344865	-126.315508	-29.936729	6.726687	-29.936729	6.726687	-0.344945	-126.339138
8.850000	-0.349422	-126.922335	-29.858157	6.464030	-29.858157	6.464030	-0.349503	-126.946072
8.900000	-0.354071	-127.528292	-29.778404	6.191560	-29.778404	6.191560	-0.354152	-127.552135
8.950000	-0.358729	-128.134169	-29.699206	5.918198	-29.699206	5.918198	-0.358812	-128.158118
9.000000	-0.363472	-128.739340	-29.619081	5.636120	-29.619081	5.636120	-0.363555	-128.763398
9.050000	-0.368234	-129.344371	-29.539362	5.352300	-29.539362	5.352300	-0.368318	-129.368536
9.100000	-0.373072	-129.948847	-29.458948	5.060879	-29.458948	5.060879	-0.373156	-129.973120
9.150000	-0.377937	-130.553137	-29.378802	4.766925	-29.378802	4.766925	-0.378022	-130.577519
9.200000	-0.382871	-131.157007	-29.298175	4.466476	-29.298175	4.466476	-0.382957	-131.181498
9.250000	-0.387840	-131.760666	-29.217687	4.162779	-29.217687	4.162779	-0.387927	-131.785267
9.300000	-0.392870	-132.364021	-29.136911	3.853660	-29.136911	3.853660	-0.392958	-132.388731
9.350000	-0.397945	-132.967158	-29.056153	3.540668	-29.056153	3.540668	-0.398034	-132.991979
9.400000	-0.403072	-133.570091	-28.975285	3.223275	-28.975285	3.223275	-0.403161	-133.595023
9.450000	-0.408251	-134.172819	-28.894317	2.901481	-28.894317	2.901481	-0.408342	-134.197863
9.500000	-0.413476	-134.775423	-28.813404	2.576239	-28.813404	2.576239	-0.413567	-134.800580
9.550000	-0.418761	-135.377856	-28.732274	2.246170	-28.732274	2.246170	-0.418854	-135.403125
9.600000	-0.424084	-135.980228	-28.651350	1.913529	-28.651350	1.913529	-0.424177	-136.005611
9.650000	-0.429476	-136.582481	-28.570094	1.575741	-28.570094	1.575741	-0.429570	-136.607978
9.700000	-0.434896	-137.184719	-28.489187	1.236167	-28.489187	1.236167	-0.434991	-137.210331
9.750000	-0.440394	-137.786911	-28.407826	0.891232	-28.407826	0.891232	-0.440490	-137.812638
9.800000	-0.445913	-138.389113	-28.326953	0.545202	-28.326953	0.545202	-0.446009	-138.414956
9.850000	-0.451518	-138.991364	-28.245498	0.193700	-28.245498	0.193700	-0.451615	-139.017324
9.900000	-0.457135	-139.593631	-28.164666	-0.158300	-28.164666	-0.158300	-0.457233	-139.619708
9.950000	-0.462847	-140.196064	-28.083114	-0.515786	-28.083114	-0.515786	-0.462946	-140.222260
10.000000	-0.468563	-140.798497	-28.002322	-0.873272	-28.002322	-0.873272	-0.468663	-140.824812
