! freq	dB(S11)	phase(S11)	dB(S12)	phase(S12)	
!     	dB(S21)	phase(S21)	dB(S22)	phase(S22)	
!S-par simulation data
#  GHz  S  DB  R 50
0.000000	-0.000000	0.000000	-337.940465	0.000000	-337.940465	0.000000	-0.000000	0.000000
0.050000	-0.000099	-0.792155	-70.867976	88.109684	-70.867976	88.109684	-0.000099	-0.792111
0.100000	-0.000392	-1.584072	-64.974700	87.055843	-64.974700	87.055843	-0.000391	-1.583984
0.150000	-0.000866	-2.375532	-61.534808	86.378431	-61.534808	86.378431	-0.000866	-2.375399
0.200000	-0.001504	-3.166353	-59.083642	85.765020	-59.083642	85.765020	-0.001504	-3.166176
0.250000	-0.002294	-3.956327	-57.174999	85.134055	-57.174999	85.134055	-0.002293	-3.956106
0.300000	-0.003197	-4.745416	-55.611706	84.476518	-55.611706	84.476518	-0.003197	-4.745151
0.350000	-0.004198	-5.533512	-54.288332	83.794946	-54.288332	83.794946	-0.004197	-5.533203
0.400000	-0.005274	-6.320570	-53.141571	83.094656	-53.141571	83.094656	-0.005273	-6.320218
0.450000	-0.006404	-7.106576	-52.130364	82.380279	-52.130364	82.380279	-0.006403	-7.106180
0.500000	-0.007571	-7.891535	-51.226539	81.655375	-51.226539	81.655375	-0.007570	-7.891096
0.550000	-0.008759	-8.675469	-50.409920	80.922593	-50.409920	80.922593	-0.008758	-8.674986
0.600000	-0.009958	-9.458405	-49.665564	80.183911	-49.665564	80.183911	-0.009956	-9.457880
0.650000	-0.011157	-10.240379	-48.982091	79.440825	-48.982091	79.440825	-0.011155	-10.239811
0.700000	-0.012350	-11.021424	-48.350638	78.694481	-48.350638	78.694481	-0.012349	-11.020812
0.750000	-0.013532	-11.801571	-47.764164	77.945777	-47.764164	77.945777	-0.013531	-11.800916
0.800000	-0.014701	-12.580847	-47.216986	77.195426	-47.216986	77.195426	-0.014700	-12.580149
0.850000	-0.015854	-13.359274	-46.704450	76.444008	-46.704450	76.444008	-0.015853	-13.358534
0.900000	-0.016992	-14.136870	-46.222695	75.692002	-46.222695	75.692002	-0.016990	-14.136087
0.950000	-0.018112	-14.913646	-45.768484	74.939809	-45.768484	74.939809	-0.018111	-14.912820
1.000000	-0.019218	-15.689608	-45.339076	74.187772	-45.339076	74.187772	-0.019216	-15.688741
1.050000	-0.020308	-16.464760	-44.932130	73.436187	-44.932130	73.436187	-0.020306	-16.463850
1.100000	-0.021385	-17.239098	-44.545630	72.685314	-44.545630	72.685314	-0.021383	-17.238146
1.150000	-0.022449	-18.012618	-44.177827	71.935386	-44.177827	71.935386	-0.022447	-18.011623
1.200000	-0.023502	-18.785311	-43.827194	71.186613	-43.827194	71.186613	-0.023500	-18.784274
1.250000	-0.024545	-19.557166	-43.492392	70.439183	-43.492392	70.439183	-0.024543	-19.556086
1.300000	-0.025579	-20.328131	-43.172336	69.693348	-43.172336	69.693348	-0.025577	-20.327010
1.350000	-0.026605	-21.098229	-42.865875	68.949210	-42.865875	68.949210	-0.026603	-21.097066
1.400000	-0.027625	-21.867444	-42.572073	68.206921	-42.572073	68.206921	-0.027622	-21.866239
1.450000	-0.028639	-22.635757	-42.290090	67.466624	-42.290090	67.466624	-0.028636	-22.634510
1.500000	-0.029648	-23.403151	-42.019172	66.728457	-42.019172	66.728457	-0.029645	-23.401862
1.550000	-0.030653	-24.169607	-41.758638	65.992549	-41.758638	65.992549	-0.030650	-24.168277
1.600000	-0.031655	-24.935106	-41.507871	65.259028	-41.507871	65.259028	-0.031652	-24.933735
1.650000	-0.032654	-25.699629	-41.266310	64.528014	-41.266310	64.528014	-0.032651	-25.698216
1.700000	-0.033651	-26.462801	-41.034217	63.800593	-41.034217	63.800593	-0.033648	-26.461347
1.750000	-0.034647	-27.225446	-40.809277	63.074582	-40.809277	63.074582	-0.034644	-27.223952
1.800000	-0.035642	-27.986823	-40.592635	62.352099	-40.592635	62.352099	-0.035639	-27.985287
1.850000	-0.036636	-28.747293	-40.383092	61.632135	-40.383092	61.632135	-0.036633	-28.745716
1.900000	-0.037630	-29.506633	-40.180705	60.915430	-40.180705	60.915430	-0.037627	-29.505016
1.950000	-0.038625	-30.264844	-39.985098	60.201984	-39.985098	60.201984	-0.038621	-30.263186
2.000000	-0.039620	-31.022080	-39.795625	59.491444	-39.795625	59.491444	-0.039616	-31.020381
2.050000	-0.040615	-31.777949	-39.612701	58.784972	-39.612701	58.784972	-0.040611	-31.776210
2.100000	-0.041612	-32.533012	-39.434990	58.080972	-39.434990	58.080972	-0.041608	-32.531233
2.150000	-0.042611	-33.286462	-39.263667	57.381916	-39.263667	57.381916	-0.042607	-33.284642
2.200000	-0.043610	-34.039288	-39.096722	56.684822	-39.096722	56.684822	-0.043606	-34.037428
2.250000	-0.044613	-34.790241	-38.936056	55.993616	-38.936056	55.993616	-0.044609	-34.788341
2.300000	-0.045617	-35.540766	-38.779006	55.303790	-38.779006	55.303790	-0.045612	-35.538826
2.350000	-0.046625	-36.289150	-38.628168	54.620859	-38.628168	54.620859	-0.046620	-36.287170
2.400000	-0.047633	-37.037313	-38.480247	53.938654	-38.480247	53.938654	-0.047629	-37.035294
2.450000	-0.048648	-37.783057	-38.338503	53.264417	-38.338503	53.264417	-0.048643	-37.780999
2.500000	-0.049663	-38.528801	-38.199035	52.590181	-38.199035	52.590181	-0.049658	-38.526704
2.550000	-0.050685	-39.271839	-38.065730	51.925052	-38.065730	51.925052	-0.050680	-39.269702
2.600000	-0.051707	-40.014877	-37.934440	51.259922	-37.934440	51.259922	-0.051702	-40.012700
2.650000	-0.052738	-40.755375	-37.808658	50.603514	-37.808658	50.603514	-0.052733	-40.753160
2.700000	-0.053769	-41.495643	-37.684990	49.947899	-37.684990	49.947899	-0.053764	-41.493389
2.750000	-0.054809	-42.233552	-37.566216	49.300547	-37.566216	49.300547	-0.054804	-42.231260
2.800000	-0.055850	-42.970990	-37.449666	48.654848	-37.449666	48.654848	-0.055845	-42.968659
2.850000	-0.056901	-43.706263	-37.337432	48.016885	-37.337432	48.016885	-0.056895	-43.703894
2.900000	-0.057954	-44.440815	-37.227542	47.381500	-37.227542	47.381500	-0.057948	-44.438407
2.950000	-0.059015	-45.173406	-37.121424	46.753252	-37.121424	46.753252	-0.059010	-45.170960
3.000000	-0.060081	-45.905018	-37.017772	46.128573	-37.017772	46.128573	-0.060076	-45.902534
3.050000	-0.061156	-46.634885	-36.917382	45.510365	-36.917382	45.510365	-0.061150	-46.632363
3.100000	-0.062236	-47.363507	-36.819580	44.896779	-36.819580	44.896779	-0.062231	-47.360947
3.150000	-0.063325	-48.090611	-36.724561	44.288930	-36.724561	44.288930	-0.063319	-48.088013
3.200000	-0.064421	-48.816196	-36.632248	43.686819	-36.632248	43.686819	-0.064415	-48.813561
3.250000	-0.065525	-49.540498	-36.542272	43.089646	-36.542272	43.089646	-0.065519	-49.537826
3.300000	-0.066638	-50.263004	-36.455111	42.499386	-36.455111	42.499386	-0.066632	-50.260294
3.350000	-0.067758	-50.984470	-36.369870	41.913199	-36.369870	41.913199	-0.067752	-50.981723
3.400000	-0.068891	-51.703857	-36.287545	41.335159	-36.287545	41.335159	-0.068884	-51.701073
3.450000	-0.070029	-52.422455	-36.206754	40.760264	-36.206754	40.760264	-0.070022	-52.419634
3.500000	-0.071182	-53.138686	-36.128968	40.194806	-36.128968	40.194806	-0.071175	-53.135829
3.550000	-0.072339	-53.854386	-36.052359	39.631504	-36.052359	39.631504	-0.072332	-53.851492
3.600000	-0.073514	-54.567429	-35.978828	39.078983	-35.978828	39.078983	-0.073507	-54.564498
3.650000	-0.074691	-55.280203	-35.906147	38.527568	-35.906147	38.527568	-0.074684	-55.277236
3.700000	-0.075890	-55.990028	-35.836602	37.988327	-35.836602	37.988327	-0.075883	-55.987025
3.750000	-0.077089	-56.699853	-35.767610	37.449086	-35.767610	37.449086	-0.077082	-56.696814
3.800000	-0.078313	-57.406434	-35.701793	36.923461	-35.701793	36.923461	-0.078306	-57.403359
3.850000	-0.079538	-58.113015	-35.636471	36.397836	-35.636471	36.397836	-0.079531	-58.109903
3.900000	-0.080787	-58.816601	-35.573922	35.884987	-35.573922	35.884987	-0.080780	-58.813454
3.950000	-0.082038	-59.519915	-35.512027	35.373300	-35.512027	35.373300	-0.082031	-59.516732
4.000000	-0.083314	-60.220491	-35.452530	34.873485	-35.452530	34.873485	-0.083306	-60.217272
4.050000	-0.084594	-60.920519	-35.393827	34.376045	-35.393827	34.376045	-0.084586	-60.917265
4.100000	-0.085897	-61.618070	-35.337173	33.889510	-35.337173	33.889510	-0.085889	-61.614781
4.150000	-0.087208	-62.314796	-35.281433	33.406609	-35.281433	33.406609	-0.087200	-62.311471
4.200000	-0.088540	-63.009312	-35.227417	32.933586	-35.227417	32.933586	-0.088532	-63.005952
4.250000	-0.089883	-63.702723	-35.174416	32.465501	-35.174416	32.465501	-0.089875	-63.699328
4.300000	-0.091245	-64.394194	-35.122842	32.006208	-35.122842	32.006208	-0.091237	-64.390764
4.350000	-0.092622	-65.084280	-35.072359	31.553193	-35.072359	31.553193	-0.092613	-65.080816
4.400000	-0.094016	-65.772701	-35.023035	31.107829	-35.023035	31.107829	-0.094008	-65.769202
4.450000	-0.095428	-66.459457	-34.974852	30.670117	-34.974852	30.670117	-0.095420	-66.455923
4.500000	-0.096856	-67.144824	-34.927588	30.238865	-34.927588	30.238865	-0.096847	-67.141255
4.550000	-0.098305	-67.828245	-34.881490	29.816658	-34.881490	29.816658	-0.098297	-67.824643
4.600000	-0.099768	-68.510556	-34.836101	29.399679	-34.836101	29.399679	-0.099759	-68.506919
4.650000	-0.101256	-69.190644	-34.791874	28.993154	-34.791874	28.993154	-0.101247	-69.186973
4.700000	-0.102755	-69.869900	-34.748177	28.590584	-34.748177	28.590584	-0.102746	-69.866195
4.750000	-0.104284	-70.546658	-34.705608	28.199879	-34.705608	28.199879	-0.104274	-70.542918
4.800000	-0.105820	-71.222862	-34.663421	27.811829	-34.663421	27.811829	-0.105811	-71.219088
4.850000	-0.107391	-71.896295	-34.622298	27.437048	-34.622298	27.437048	-0.107382	-71.892488
4.900000	-0.108966	-72.569453	-34.581441	27.063599	-34.581441	27.063599	-0.108957	-72.565611
4.950000	-0.110581	-73.239571	-34.541553	26.704799	-34.541553	26.704799	-0.110572	-73.235696
5.000000	-0.112197	-73.909690	-34.501847	26.346000	-34.501847	26.346000	-0.112187	-73.905781
5.050000	-0.113858	-74.576505	-34.462981	26.003192	-34.462981	26.003192	-0.113848	-74.572563
5.100000	-0.115519	-75.243321	-34.424289	25.660385	-34.424289	25.660385	-0.115509	-75.239345
5.150000	-0.117224	-75.907123	-34.386194	25.332198	-34.386194	25.332198	-0.117213	-75.903114
5.200000	-0.118932	-76.570651	-34.348305	25.005340	-34.348305	25.005340	-0.118922	-76.566608
5.250000	-0.120682	-77.231453	-34.310803	24.691690	-34.310803	24.691690	-0.120671	-77.227378
5.300000	-0.122439	-77.891711	-34.273508	24.380680	-34.273508	24.380680	-0.122429	-77.887602
5.350000	-0.124235	-78.549531	-34.236421	24.081434	-34.236421	24.081434	-0.124224	-78.545389
5.400000	-0.126043	-79.206540	-34.199509	23.786109	-34.199509	23.786109	-0.126033	-79.202364
5.450000	-0.127886	-79.861397	-34.162662	23.501084	-34.162662	23.501084	-0.127876	-79.857189
5.500000	-0.129747	-80.515179	-34.125926	23.221209	-34.125926	23.221209	-0.129736	-80.510937
5.550000	-0.131640	-81.167093	-34.089144	22.950167	-34.089144	22.950167	-0.131629	-81.162819
5.600000	-0.133555	-81.817675	-34.052374	22.685434	-34.052374	22.685434	-0.133543	-81.813367
5.650000	-0.135497	-82.466670	-34.015485	22.428079	-34.015485	22.428079	-0.135486	-82.462330
5.700000	-0.137468	-83.114079	-33.978478	22.178103	-33.978478	22.178103	-0.137456	-83.109706
5.750000	-0.139462	-83.760179	-33.941313	21.934079	-33.941313	21.934079	-0.139451	-83.755773
5.800000	-0.141490	-84.404446	-33.903865	21.698390	-33.903865	21.698390	-0.141478	-84.400008
5.850000	-0.143538	-85.047678	-33.866257	21.467277	-33.866257	21.467277	-0.143526	-85.043207
5.900000	-0.145625	-85.688838	-33.828171	21.245320	-33.828171	21.245320	-0.145613	-85.684334
5.950000	-0.147727	-86.329229	-33.789960	21.026634	-33.789960	21.026634	-0.147715	-86.324692
6.000000	-0.149875	-86.967316	-33.751042	20.817765	-33.751042	20.817765	-0.149862	-86.962747
6.050000	-0.152033	-87.604897	-33.712069	20.610955	-33.712069	20.610955	-0.152020	-87.600295
6.100000	-0.154242	-88.239949	-33.672134	20.414442	-33.672134	20.414442	-0.154230	-88.235315
6.150000	-0.156458	-88.874752	-33.632250	20.218890	-33.632250	20.218890	-0.156445	-88.870085
6.200000	-0.158731	-89.506809	-33.591118	20.033911	-33.591118	20.033911	-0.158718	-89.502109
6.250000	-0.161005	-90.138867	-33.550180	19.848931	-33.550180	19.848931	-0.160992	-90.134134
6.300000	-0.163344	-90.767972	-33.507684	19.674577	-33.507684	19.674577	-0.163331	-90.763207
6.350000	-0.165683	-91.397077	-33.465394	19.500222	-33.465394	19.500222	-0.165670	-91.392279
6.400000	-0.168084	-92.023516	-33.421538	19.334697	-33.421538	19.334697	-0.168070	-92.018686
6.450000	-0.170490	-92.649713	-33.377742	19.169975	-33.377742	19.169975	-0.170476	-92.644850
6.500000	-0.172953	-93.273525	-33.332412	19.012388	-33.332412	19.012388	-0.172939	-93.268630
6.550000	-0.175428	-93.896860	-33.286967	18.856227	-33.286967	18.856227	-0.175413	-93.891932
6.600000	-0.177955	-94.518085	-33.240059	18.705632	-33.240059	18.705632	-0.177940	-94.513124
6.650000	-0.180500	-95.138607	-33.192840	18.556892	-33.192840	18.556892	-0.180485	-95.133613
6.700000	-0.183092	-95.757286	-33.144264	18.412297	-33.144264	18.412297	-0.183077	-95.752260
6.750000	-0.185708	-96.375044	-33.095157	18.269775	-33.095157	18.269775	-0.185694	-96.369985
6.800000	-0.188367	-96.991221	-33.044838	18.130150	-33.044838	18.130150	-0.188352	-96.986129
6.850000	-0.191057	-97.606268	-32.993751	17.992594	-32.993751	17.992594	-0.191042	-97.601143
6.900000	-0.193784	-98.219986	-32.941626	17.856875	-32.941626	17.856875	-0.193768	-98.214829
6.950000	-0.196548	-98.832376	-32.888483	17.722994	-32.888483	17.722994	-0.196533	-98.827186
7.000000	-0.199344	-99.443682	-32.834506	17.590098	-32.834506	17.590098	-0.199328	-99.438459
7.050000	-0.202184	-100.053470	-32.779252	17.458579	-32.779252	17.458579	-0.202168	-100.048214
7.100000	-0.205051	-100.662411	-32.723391	17.327407	-32.723391	17.327407	-0.205035	-100.657121
7.150000	-0.207969	-101.269655	-32.665990	17.196930	-32.665990	17.196930	-0.207952	-101.264332
7.200000	-0.210907	-101.876278	-32.608231	17.066384	-32.608231	17.066384	-0.210890	-101.870922
7.250000	-0.213904	-102.481037	-32.548665	16.935635	-32.548665	16.935635	-0.213887	-102.475648
7.300000	-0.216914	-103.085392	-32.489007	16.804625	-32.489007	16.804625	-0.216897	-103.079969
7.350000	-0.219992	-103.687727	-32.427283	16.672313	-32.427283	16.672313	-0.219974	-103.682271
7.400000	-0.223077	-104.289865	-32.365742	16.539768	-32.365742	16.539768	-0.223059	-104.284376
7.450000	-0.226236	-104.889838	-32.301882	16.404646	-32.301882	16.404646	-0.226218	-104.884315
7.500000	-0.229396	-105.489812	-32.238488	16.269524	-32.238488	16.269524	-0.229378	-105.484254
7.550000	-0.232638	-106.087487	-32.172534	16.130398	-32.172534	16.130398	-0.232620	-106.081896
7.600000	-0.235881	-106.685162	-32.107077	15.991272	-32.107077	15.991272	-0.235863	-106.679537
7.650000	-0.239201	-107.280791	-32.039344	15.847446	-32.039344	15.847446	-0.239183	-107.275132
7.700000	-0.242529	-107.876234	-31.971885	15.703192	-31.971885	15.703192	-0.242511	-107.870541
7.750000	-0.245928	-108.469872	-31.902444	15.553799	-31.902444	15.553799	-0.245909	-108.464145
7.800000	-0.249342	-109.063150	-31.833058	15.403377	-31.833058	15.403377	-0.249323	-109.057389
7.850000	-0.252820	-109.654855	-31.761995	15.247619	-31.761995	15.247619	-0.252801	-109.649059
7.900000	-0.256322	-110.246036	-31.690772	15.090083	-31.690772	15.090083	-0.256302	-110.240205
7.950000	-0.259881	-110.835866	-31.618178	14.927243	-31.618178	14.927243	-0.259861	-110.830001
8.000000	-0.263471	-111.425020	-31.545219	14.761750	-31.545219	14.761750	-0.263451	-111.419120
8.050000	-0.267112	-112.013034	-31.471194	14.591188	-31.471194	14.591188	-0.267092	-112.007099
8.100000	-0.270792	-112.600233	-31.396611	14.417007	-31.396611	14.417007	-0.270771	-112.594263
8.150000	-0.274516	-113.186491	-31.321262	14.238173	-31.321262	14.238173	-0.274496	-113.180485
8.200000	-0.278287	-113.771808	-31.245172	14.054687	-31.245172	14.054687	-0.278266	-113.765767
8.250000	-0.282096	-114.356372	-31.168609	13.867116	-31.168609	13.867116	-0.282075	-114.350295
8.300000	-0.285958	-114.939881	-31.091138	13.673827	-31.091138	13.673827	-0.285937	-114.933768
8.350000	-0.289852	-115.522813	-31.013472	13.477145	-31.013472	13.477145	-0.289830	-115.516664
8.400000	-0.293808	-116.104590	-30.934748	13.273674	-30.934748	13.273674	-0.293786	-116.098405
8.450000	-0.297788	-116.685954	-30.856093	13.067593	-30.856093	13.067593	-0.297766	-116.679733
8.500000	-0.301838	-117.266077	-30.776243	12.853679	-30.776243	12.853679	-0.301815	-117.259819
8.550000	-0.305905	-117.845937	-30.696710	12.638000	-30.696710	12.638000	-0.305882	-117.839643
8.600000	-0.310050	-118.424484	-30.615863	12.413494	-30.615863	12.413494	-0.310027	-118.418153
8.650000	-0.314205	-119.002907	-30.535563	12.188103	-30.535563	12.188103	-0.314182	-118.996538
8.700000	-0.318447	-119.579958	-30.453841	11.952966	-30.453841	11.952966	-0.318423	-119.573552
8.750000	-0.322691	-120.157010	-30.372880	11.717828	-30.372880	11.717828	-0.322667	-120.150566
8.800000	-0.327030	-120.732647	-30.290403	11.472122	-30.290403	11.472122	-0.327006	-120.726166
8.850000	-0.331371	-121.308285	-30.208701	11.226416	-30.208701	11.226416	-0.331347	-121.301766
8.900000	-0.335801	-121.882703	-30.125764	10.971164	-30.125764	10.971164	-0.335776	-121.876145
8.950000	-0.340240	-122.457010	-30.043431	10.715045	-30.043431	10.715045	-0.340216	-122.450414
9.000000	-0.344761	-123.030278	-29.960124	10.450450	-29.960124	10.450450	-0.344736	-123.023644
9.050000	-0.349300	-123.603339	-29.877262	10.184160	-29.877262	10.184160	-0.349275	-123.596666
9.100000	-0.353913	-124.175530	-29.793668	9.910481	-29.793668	9.910481	-0.353887	-124.168818
9.150000	-0.358552	-124.747431	-29.710371	9.634339	-29.710371	9.634339	-0.358526	-124.740679
9.200000	-0.363257	-125.318618	-29.626564	9.351887	-29.626564	9.351887	-0.363231	-125.311826
9.250000	-0.367997	-125.889446	-29.542914	9.066279	-29.542914	9.066279	-0.367970	-125.882614
9.300000	-0.372795	-126.459702	-29.458959	8.775408	-29.458959	8.775408	-0.372769	-126.452830
9.350000	-0.377637	-127.029548	-29.375029	8.480778	-29.375029	8.480778	-0.377610	-127.022635
9.400000	-0.382529	-127.598947	-29.290983	8.181882	-29.290983	8.181882	-0.382502	-127.591994
9.450000	-0.387472	-128.167901	-29.206833	7.878721	-29.206833	7.878721	-0.387445	-128.160906
9.500000	-0.392459	-128.736521	-29.122743	7.572226	-29.122743	7.572226	-0.392431	-128.729485
9.550000	-0.397505	-129.304676	-29.038423	7.261064	-29.038423	7.261064	-0.397477	-129.297598
9.600000	-0.402587	-129.872594	-28.954326	6.947422	-28.954326	6.947422	-0.402559	-129.865474
9.650000	-0.407736	-130.440043	-28.869872	6.628819	-28.869872	6.628819	-0.407708	-130.432880
9.700000	-0.412913	-131.007339	-28.785796	6.308501	-28.785796	6.308501	-0.412884	-131.000134
9.750000	-0.418166	-131.574178	-28.701233	5.983038	-28.701233	5.983038	-0.418137	-131.566930
9.800000	-0.423438	-132.140931	-28.617197	5.656531	-28.617197	5.656531	-0.423409	-132.133640
9.850000	-0.428795	-132.707258	-28.532537	5.324803	-28.532537	5.324803	-0.428766	-132.699923
9.900000	-0.434164	-133.273550	-28.448551	4.992603	-28.448551	4.992603	-0.434134	-133.266171
9.950000	-0.439625	-133.839464	-28.363795	4.655211	-28.363795	4.655211	-0.439594	-133.832041
10.000000	-0.445089	-134.405379	-28.279859	4.317819	-28.279859	4.317819	-0.445059	-134.397910
