! freq	dB(S11)	phase(S11)	dB(S12)	phase(S12)	
!     	dB(S21)	phase(S21)	dB(S22)	phase(S22)	
!S-par simulation data
#  GHz  S  DB  R 50
0.000000	-0.000000	-0.000000	-280.072082	180.000000	-280.072082	180.000000	0.000000	0.000000
0.050000	-0.000115	-0.966599	-61.902282	88.601446	-61.902282	88.601446	-0.000107	-0.853747
0.100000	-0.000458	-1.932932	-55.930828	87.378942	-55.930828	87.378942	-0.000424	-1.707241
0.150000	-0.001016	-2.898745	-52.461168	86.345692	-52.461168	86.345692	-0.000940	-2.560250
0.200000	-0.001771	-3.863827	-50.005872	85.429593	-50.005872	85.429593	-0.001634	-3.412577
0.250000	-0.002711	-4.827927	-48.101603	84.571185	-48.101603	84.571185	-0.002496	-4.263999
0.300000	-0.003796	-5.790982	-46.543701	83.730774	-46.543701	83.730774	-0.003486	-5.114466
0.350000	-0.005009	-6.752842	-45.225013	82.894674	-45.225013	82.894674	-0.004587	-5.963856
0.400000	-0.006325	-7.713429	-44.081742	82.055905	-44.081742	82.055905	-0.005775	-6.812113
0.450000	-0.007721	-8.672696	-43.072854	81.212068	-43.072854	81.212068	-0.007029	-7.659211
0.500000	-0.009176	-9.630621	-42.170335	80.362763	-42.170335	80.362763	-0.008329	-8.505147
0.550000	-0.010672	-10.587203	-41.354176	79.508395	-41.354176	79.508395	-0.009660	-9.349935
0.600000	-0.012193	-11.542453	-40.609571	78.649647	-40.609571	78.649647	-0.011008	-10.193599
0.650000	-0.013726	-12.496391	-39.925251	77.787250	-39.925251	77.787250	-0.012362	-11.036170
0.700000	-0.015262	-13.449040	-39.292435	76.921894	-39.292435	76.921894	-0.013716	-11.877677
0.750000	-0.016793	-14.400426	-38.704147	76.054194	-38.704147	76.054194	-0.015063	-12.718151
0.800000	-0.018315	-15.350571	-38.154752	75.184692	-38.154752	75.184692	-0.016400	-13.557616
0.850000	-0.019823	-16.299495	-37.639630	74.313855	-37.639630	74.313855	-0.017724	-14.396095
0.900000	-0.021315	-17.247211	-37.154949	73.442087	-37.154949	73.442087	-0.019034	-15.233602
0.950000	-0.022791	-18.193730	-36.697494	72.569740	-36.697494	72.569740	-0.020330	-16.070148
1.000000	-0.024249	-19.139056	-36.264539	71.697122	-36.264539	71.697122	-0.021613	-16.905739
1.050000	-0.025691	-20.083188	-35.853756	70.824500	-35.853756	70.824500	-0.022882	-17.740375
1.100000	-0.027117	-21.026124	-35.463138	69.952112	-35.463138	69.952112	-0.024139	-18.574052
1.150000	-0.028527	-21.967852	-35.090944	69.080172	-35.090944	69.080172	-0.025386	-19.406762
1.200000	-0.029924	-22.908361	-34.735652	68.208866	-34.735652	68.208866	-0.026622	-20.238495
1.250000	-0.031309	-23.847634	-34.395927	67.338368	-34.395927	67.338368	-0.027851	-21.069236
1.300000	-0.032683	-24.785599	-34.070661	66.468882	-34.070661	66.468882	-0.029072	-21.898927
1.350000	-0.034048	-25.722288	-33.758731	65.600512	-33.758731	65.600512	-0.030287	-22.727590
1.400000	-0.035404	-26.657678	-33.459203	64.733388	-33.459203	64.733388	-0.031497	-23.555207
1.450000	-0.036754	-27.591745	-33.171239	63.867630	-33.171239	63.867630	-0.032704	-24.381758
1.500000	-0.038099	-28.524464	-32.894085	63.003349	-32.894085	63.003349	-0.033908	-25.207221
1.550000	-0.039439	-29.455810	-32.627061	62.140651	-32.627061	62.140651	-0.035109	-26.031573
1.600000	-0.040776	-30.385757	-32.369549	61.279632	-32.369549	61.279632	-0.036310	-26.854793
1.650000	-0.042111	-31.314277	-32.120988	60.420384	-32.120988	60.420384	-0.037510	-27.676857
1.700000	-0.043444	-32.241344	-31.880868	59.562995	-31.880868	59.562995	-0.038710	-28.497744
1.750000	-0.044776	-33.166932	-31.648720	58.707547	-31.648720	58.707547	-0.039911	-29.317430
1.800000	-0.046109	-34.091014	-31.424115	57.854117	-31.424115	57.854117	-0.041113	-30.135892
1.850000	-0.047442	-35.013565	-31.206657	57.002781	-31.206657	57.002781	-0.042317	-30.953109
1.900000	-0.048776	-35.934557	-30.995984	56.153610	-30.995984	56.153610	-0.043522	-31.769057
1.950000	-0.050112	-36.853967	-30.791758	55.306670	-30.791758	55.306670	-0.044729	-32.583715
2.000000	-0.051450	-37.771769	-30.593669	54.462027	-30.593669	54.462027	-0.045939	-33.397061
2.050000	-0.052791	-38.687940	-30.401425	53.619743	-30.401425	53.619743	-0.047152	-34.209075
2.100000	-0.054135	-39.602455	-30.214759	52.779876	-30.214759	52.779876	-0.048368	-35.019735
2.150000	-0.055483	-40.515293	-30.033419	51.942485	-30.033419	51.942485	-0.049587	-35.829021
2.200000	-0.056834	-41.426430	-29.857172	51.107624	-29.857172	51.107624	-0.050810	-36.636914
2.250000	-0.058190	-42.335847	-29.685797	50.275345	-29.685797	50.275345	-0.052037	-37.443393
2.300000	-0.059549	-43.243521	-29.519090	49.445699	-29.519090	49.445699	-0.053268	-38.248441
2.350000	-0.060914	-44.149434	-29.356857	48.618734	-29.356857	48.618734	-0.054503	-39.052038
2.400000	-0.062284	-45.053566	-29.198918	47.794497	-29.198918	47.794497	-0.055742	-39.854167
2.450000	-0.063659	-45.955899	-29.045100	46.973032	-29.045100	46.973032	-0.056986	-40.654811
2.500000	-0.065040	-46.856416	-28.895244	46.154382	-28.895244	46.154382	-0.058235	-41.453952
2.550000	-0.066427	-47.755020	-28.749253	45.338716	-28.749253	45.338716	-0.059489	-42.251508
2.600000	-0.067820	-48.651774	-28.606925	44.525949	-28.606925	44.525949	-0.060749	-43.047528
2.650000	-0.069220	-49.546663	-28.468124	43.716120	-28.468124	43.716120	-0.062014	-43.841996
2.700000	-0.070627	-50.439674	-28.332722	42.909265	-28.332722	42.909265	-0.063285	-44.634899
2.750000	-0.072041	-51.330792	-28.200594	42.105418	-28.200594	42.105418	-0.064562	-45.426221
2.800000	-0.073462	-52.220006	-28.071625	41.304613	-28.071625	41.304613	-0.065846	-46.215949
2.850000	-0.074891	-53.107303	-27.945704	40.506882	-27.945704	40.506882	-0.067136	-47.004071
2.900000	-0.076328	-53.992674	-27.822724	39.712255	-27.822724	39.712255	-0.068433	-47.790573
2.950000	-0.077774	-54.876108	-27.702584	38.920761	-27.702584	38.920761	-0.069736	-48.575443
3.000000	-0.079228	-55.757596	-27.585189	38.132428	-27.585189	38.132428	-0.071048	-49.358669
3.050000	-0.080692	-56.637130	-27.470446	37.347282	-27.470446	37.347282	-0.072367	-50.140241
3.100000	-0.082165	-57.514701	-27.358266	36.565349	-27.358266	36.565349	-0.073694	-50.920147
3.150000	-0.083648	-58.390304	-27.248565	35.786651	-27.248565	35.786651	-0.075029	-51.698378
3.200000	-0.085141	-59.263931	-27.141263	35.011212	-27.141263	35.011212	-0.076373	-52.474923
3.250000	-0.086644	-60.135579	-27.036280	34.239053	-27.036280	34.239053	-0.077726	-53.249775
3.300000	-0.088159	-61.005242	-26.933544	33.470194	-26.933544	33.470194	-0.079089	-54.022923
3.350000	-0.089685	-61.872917	-26.832980	32.704654	-26.832980	32.704654	-0.080460	-54.794361
3.400000	-0.091223	-62.738600	-26.734522	31.942450	-26.734522	31.942450	-0.081842	-55.564079
3.450000	-0.092773	-63.602290	-26.638101	31.183599	-26.638101	31.183599	-0.083235	-56.332072
3.500000	-0.094336	-64.463985	-26.543653	30.428116	-26.543653	30.428116	-0.084638	-57.098333
3.550000	-0.095911	-65.323684	-26.451118	29.676015	-26.451118	29.676015	-0.086052	-57.862855
3.600000	-0.097501	-66.181387	-26.360434	28.927309	-26.360434	28.927309	-0.087477	-58.625632
3.650000	-0.099104	-67.037095	-26.271544	28.182010	-26.271544	28.182010	-0.088914	-59.386660
3.700000	-0.100722	-67.890810	-26.184391	27.440128	-26.184391	27.440128	-0.090364	-60.145933
3.750000	-0.102354	-68.742534	-26.098923	26.701674	-26.098923	26.701674	-0.091826	-60.903448
3.800000	-0.104003	-69.592183	-26.015120	25.966805	-26.015120	25.966805	-0.093301	-61.659124
3.850000	-0.105667	-70.439847	-25.932896	25.235380	-25.932896	25.235380	-0.094790	-62.413034
3.900000	-0.107348	-71.285532	-25.852202	24.507404	-25.852202	24.507404	-0.096293	-63.165176
3.950000	-0.109045	-72.129242	-25.772989	23.782882	-25.772989	23.782882	-0.097810	-63.915547
4.000000	-0.110760	-72.970982	-25.695211	23.061819	-25.695211	23.061819	-0.099342	-64.664145
4.050000	-0.112492	-73.810761	-25.618823	22.344216	-25.618823	22.344216	-0.100888	-65.410969
4.100000	-0.114243	-74.648583	-25.543782	21.630076	-25.543782	21.630076	-0.102450	-66.156018
4.150000	-0.116013	-75.484459	-25.470043	20.919399	-25.470043	20.919399	-0.104028	-66.899291
4.200000	-0.117801	-76.318395	-25.397566	20.212184	-25.397566	20.212184	-0.105623	-67.640790
4.250000	-0.119610	-77.150401	-25.326310	19.508430	-25.326310	19.508430	-0.107234	-68.380513
4.300000	-0.121438	-77.980487	-25.256236	18.808133	-25.256236	18.808133	-0.108862	-69.118463
4.350000	-0.123288	-78.808664	-25.187304	18.111290	-25.187304	18.111290	-0.110507	-69.854640
4.400000	-0.125159	-79.634942	-25.119478	17.417895	-25.119478	17.417895	-0.112171	-70.589046
4.450000	-0.127051	-80.459333	-25.052720	16.727942	-25.052720	16.727942	-0.113853	-71.321683
4.500000	-0.128966	-81.281850	-24.986995	16.041424	-24.986995	16.041424	-0.115554	-72.052555
4.550000	-0.130903	-82.102505	-24.922267	15.358332	-24.922267	15.358332	-0.117275	-72.781664
4.600000	-0.132864	-82.921312	-24.858502	14.678655	-24.858502	14.678655	-0.119015	-73.509013
4.650000	-0.134848	-83.738286	-24.795666	14.002383	-24.795666	14.002383	-0.120775	-74.234607
4.700000	-0.136857	-84.553440	-24.733727	13.329504	-24.733727	13.329504	-0.122556	-74.958450
4.750000	-0.138891	-85.366792	-24.672651	12.660003	-24.672651	12.660003	-0.124358	-75.680547
4.800000	-0.140950	-86.178355	-24.612408	11.993867	-24.612408	11.993867	-0.126182	-76.400902
4.850000	-0.143035	-86.988148	-24.552967	11.331078	-24.552967	11.331078	-0.128028	-77.119522
4.900000	-0.145146	-87.796187	-24.494296	10.671619	-24.494296	10.671619	-0.129896	-77.836413
4.950000	-0.147284	-88.602490	-24.436367	10.015472	-24.436367	10.015472	-0.131787	-78.551580
5.000000	-0.149449	-89.407076	-24.379149	9.362617	-24.379149	9.362617	-0.133701	-79.265030
5.050000	-0.151659	-90.209015	-24.322778	8.714866	-24.322778	8.714866	-0.135653	-79.975810
5.100000	-0.153868	-91.010953	-24.266770	8.067114	-24.266770	8.067114	-0.137605	-80.686590
5.150000	-0.156133	-91.809723	-24.211633	7.425521	-24.211633	7.425521	-0.139604	-81.394131
5.200000	-0.158403	-92.608205	-24.156889	6.784487	-24.156889	6.784487	-0.141608	-82.101378
5.250000	-0.160725	-93.403882	-24.102883	6.148954	-24.102883	6.148954	-0.143656	-82.805712
5.300000	-0.163058	-94.198998	-24.049289	5.514520	-24.049289	5.514520	-0.145713	-83.509464
5.350000	-0.165440	-94.991663	-23.996315	4.884939	-23.996315	4.884939	-0.147812	-84.210624
5.400000	-0.167837	-95.783510	-23.943760	4.256976	-23.943760	4.256976	-0.149925	-84.910920
5.450000	-0.170280	-96.573244	-23.891724	3.633228	-23.891724	3.633228	-0.152077	-85.608942
5.500000	-0.172745	-97.361923	-23.840100	3.011589	-23.840100	3.011589	-0.154248	-86.305827
5.550000	-0.175251	-98.148816	-23.788910	2.393546	-23.788910	2.393546	-0.156453	-87.000749
5.600000	-0.177785	-98.934432	-23.738112	1.778071	-23.738112	1.778071	-0.158684	-87.694269
5.650000	-0.180356	-99.718573	-23.687679	1.165591	-23.687679	1.165591	-0.160946	-88.386132
5.700000	-0.182962	-100.501237	-23.637606	0.556106	-23.637606	0.556106	-0.163238	-89.076337
5.750000	-0.185599	-101.282720	-23.587844	-0.050964	-23.587844	-0.050964	-0.165557	-89.765183
5.800000	-0.188280	-102.062548	-23.538398	-0.654651	-23.538398	-0.654651	-0.167914	-90.452126
5.850000	-0.190985	-102.841469	-23.489223	-1.256476	-23.489223	-1.256476	-0.170292	-91.138001
5.900000	-0.193742	-103.618580	-23.440309	-1.854573	-23.440309	-1.854573	-0.172715	-91.821737
5.950000	-0.196518	-104.395042	-23.391643	-2.451329	-23.391643	-2.451329	-0.175155	-92.504687
6.000000	-0.199353	-105.169559	-23.343168	-3.044060	-23.343168	-3.044060	-0.177645	-93.185276
6.050000	-0.202202	-105.943665	-23.294931	-3.635937	-23.294931	-3.635937	-0.180148	-93.865350
6.100000	-0.205117	-106.715718	-23.246807	-4.223544	-23.246807	-4.223544	-0.182708	-94.542852
6.150000	-0.208040	-107.487576	-23.198925	-4.810745	-23.198925	-4.810745	-0.185275	-95.220102
6.200000	-0.211038	-108.257296	-23.151065	-5.393486	-23.151065	-5.393486	-0.187908	-95.894580
6.250000	-0.214037	-109.027016	-23.103466	-5.976226	-23.103466	-5.976226	-0.190542	-96.569059
6.300000	-0.217120	-109.794542	-23.055787	-6.554376	-23.055787	-6.554376	-0.193249	-97.240580
6.350000	-0.220204	-110.562067	-23.008367	-7.132526	-23.008367	-7.132526	-0.195957	-97.912102
6.400000	-0.223368	-111.327710	-22.960824	-7.706737	-22.960824	-7.706737	-0.198735	-98.580976
6.450000	-0.226539	-112.093182	-22.913504	-8.280590	-22.913504	-8.280590	-0.201519	-99.249610
6.500000	-0.229784	-112.857064	-22.866033	-8.851121	-22.866033	-8.851121	-0.204369	-99.915896
6.550000	-0.233045	-113.620628	-22.818738	-9.420987	-22.818738	-9.420987	-0.207232	-100.581712
6.600000	-0.236374	-114.382874	-22.771277	-9.988109	-22.771277	-9.988109	-0.210155	-101.245472
6.650000	-0.239727	-115.144680	-22.723934	-10.554316	-22.723934	-10.554316	-0.213099	-101.908545
6.700000	-0.243142	-115.905417	-22.676426	-11.118312	-22.676426	-11.118312	-0.216099	-102.569840
6.750000	-0.246589	-116.665620	-22.628967	-11.681202	-22.628967	-11.681202	-0.219126	-103.230246
6.800000	-0.250091	-117.424980	-22.581358	-12.242367	-22.581358	-12.242367	-0.222202	-103.889141
6.850000	-0.253634	-118.183737	-22.533718	-12.802300	-22.533718	-12.802300	-0.225315	-104.546957
6.900000	-0.257226	-118.941853	-22.485955	-13.360940	-22.485955	-13.360940	-0.228471	-105.203519
6.950000	-0.260868	-119.699328	-22.438073	-13.918288	-22.438073	-13.918288	-0.231670	-105.858826
7.000000	-0.264551	-120.456338	-22.390108	-14.474721	-22.390108	-14.474721	-0.234907	-106.513122
7.050000	-0.268293	-121.212697	-22.341928	-15.029871	-22.341928	-15.029871	-0.238197	-107.166002
7.100000	-0.272070	-121.968742	-22.293717	-15.584421	-22.293717	-15.584421	-0.241517	-107.818102
7.150000	-0.275915	-122.724157	-22.245185	-16.137771	-22.245185	-16.137771	-0.244898	-108.468640
7.200000	-0.279787	-123.479380	-22.196688	-16.690773	-22.196688	-16.690773	-0.248303	-109.118613
7.250000	-0.283737	-124.234026	-22.147757	-17.242731	-22.147757	-17.242731	-0.251778	-109.766895
7.300000	-0.287707	-124.988575	-22.098934	-17.794526	-22.098934	-17.794526	-0.255270	-110.414816
7.350000	-0.291764	-125.742633	-22.049560	-18.345509	-22.049560	-18.345509	-0.258842	-111.060930
7.400000	-0.295832	-126.496657	-22.000379	-18.896445	-22.000379	-18.896445	-0.262423	-111.706872
7.450000	-0.300000	-127.250311	-21.950524	-19.446873	-21.950524	-19.446873	-0.266093	-112.350909
7.500000	-0.304169	-128.003966	-21.900953	-19.997301	-21.900953	-19.997301	-0.269764	-112.994947
7.550000	-0.308448	-128.757405	-21.850583	-20.547602	-21.850583	-20.547602	-0.273535	-113.637000
7.600000	-0.312730	-129.510844	-21.800502	-21.097902	-21.800502	-21.097902	-0.277307	-114.279052
7.650000	-0.317114	-130.264264	-21.749681	-21.648477	-21.749681	-21.648477	-0.281172	-114.919372
7.700000	-0.321510	-131.017682	-21.699062	-22.199077	-21.699062	-22.199077	-0.285048	-115.559535
7.750000	-0.326002	-131.771248	-21.647771	-22.750280	-21.647771	-22.750280	-0.289010	-116.198202
7.800000	-0.330514	-132.524844	-21.596589	-23.301604	-21.596589	-23.301604	-0.292991	-116.836570
7.850000	-0.335115	-133.278724	-21.544813	-23.853788	-21.544813	-23.853788	-0.297052	-117.473666
7.900000	-0.339746	-134.032700	-21.493048	-24.406259	-21.493048	-24.406259	-0.301140	-118.110339
7.950000	-0.344458	-134.787068	-21.440777	-24.959770	-21.440777	-24.959770	-0.305302	-118.745946
8.000000	-0.349211	-135.541632	-21.388414	-25.513801	-21.388414	-25.513801	-0.309500	-119.381022
8.050000	-0.354036	-136.296663	-21.335639	-26.068980	-21.335639	-26.068980	-0.313764	-120.015226
8.100000	-0.358912	-137.052028	-21.282667	-26.624977	-21.282667	-26.624977	-0.318075	-120.648808
8.150000	-0.363852	-137.807904	-21.229383	-27.182155	-21.229383	-27.182155	-0.322444	-121.281694
8.200000	-0.368854	-138.564288	-21.175796	-27.740513	-21.175796	-27.740513	-0.326870	-121.913884
8.250000	-0.373911	-139.321191	-21.122002	-28.300012	-21.122002	-28.300012	-0.331345	-122.545539
8.300000	-0.379042	-140.078819	-21.067796	-28.861109	-21.067796	-28.861109	-0.335887	-123.176444
8.350000	-0.384217	-140.836937	-21.013493	-29.423241	-21.013493	-29.423241	-0.340471	-123.806956
8.400000	-0.389478	-141.596036	-20.958668	-29.987440	-20.958668	-29.987440	-0.345133	-124.436683
8.450000	-0.394775	-142.355562	-20.903861	-30.552500	-20.903861	-30.552500	-0.349827	-125.066142
8.500000	-0.400169	-143.116367	-20.848421	-31.120145	-20.848421	-31.120145	-0.354611	-125.694800
8.550000	-0.405589	-143.877497	-20.793114	-31.688419	-20.793114	-31.688419	-0.359417	-126.323298
8.600000	-0.411118	-144.640248	-20.737067	-32.259835	-20.737067	-32.259835	-0.364325	-126.950998
8.650000	-0.416663	-145.403182	-20.681268	-32.831590	-20.681268	-32.831590	-0.369246	-127.578628
8.700000	-0.422330	-146.168125	-20.624621	-33.407079	-20.624621	-33.407079	-0.374281	-128.205483
8.750000	-0.428001	-146.933067	-20.568341	-33.982568	-20.568341	-33.982568	-0.379318	-128.832338
8.800000	-0.433808	-147.700453	-20.511104	-34.562410	-20.511104	-34.562410	-0.384482	-129.458463
8.850000	-0.439620	-148.467840	-20.454242	-35.142253	-20.454242	-35.142253	-0.389648	-130.084588
8.900000	-0.445558	-149.237702	-20.396539	-35.726324	-20.396539	-35.726324	-0.394932	-130.710151
8.950000	-0.451511	-150.007790	-20.339107	-36.310778	-20.339107	-36.310778	-0.400230	-131.335663
9.000000	-0.457583	-150.780349	-20.280949	-36.899273	-20.280949	-36.899273	-0.405637	-131.960763
9.050000	-0.463681	-151.553402	-20.222959	-37.488575	-20.222959	-37.488575	-0.411068	-132.585780
9.100000	-0.469887	-152.328882	-20.164359	-38.081672	-20.164359	-38.081672	-0.416600	-133.210517
9.150000	-0.476132	-153.105172	-20.105824	-38.676035	-20.105824	-38.676035	-0.422168	-133.835161
9.200000	-0.482475	-153.883805	-20.046795	-39.273899	-20.046795	-39.273899	-0.427826	-134.459638
9.250000	-0.488869	-154.663609	-19.987726	-39.873513	-19.987726	-39.873513	-0.433532	-135.084032
9.300000	-0.495351	-155.445629	-19.928281	-40.476292	-19.928281	-40.476292	-0.439319	-135.708352
9.350000	-0.501896	-156.229231	-19.868689	-41.081331	-19.868689	-41.081331	-0.445166	-136.332620
9.400000	-0.508518	-157.014879	-19.808838	-41.689158	-19.808838	-41.689158	-0.451084	-136.956889
9.450000	-0.515217	-157.802571	-19.748735	-42.299774	-19.748735	-42.299774	-0.457074	-137.581159
9.500000	-0.521981	-158.592093	-19.688487	-42.912772	-19.688487	-42.912772	-0.463125	-138.205483
9.550000	-0.528835	-159.384174	-19.627880	-43.529103	-19.627880	-43.529103	-0.469260	-138.829884
9.600000	-0.535743	-160.177821	-19.567245	-44.147380	-19.567245	-44.147380	-0.475446	-139.454373
9.650000	-0.542754	-160.974598	-19.506140	-44.769550	-19.506140	-44.769550	-0.481729	-140.079037
9.700000	-0.549808	-161.772628	-19.445124	-45.393208	-19.445124	-45.393208	-0.488052	-140.703800
9.750000	-0.556979	-162.574414	-19.383526	-46.021329	-19.383526	-46.021329	-0.494485	-141.328861
9.800000	-0.564180	-163.377089	-19.322133	-46.650459	-19.322133	-46.650459	-0.500946	-141.954012
9.850000	-0.571511	-164.184207	-19.260042	-47.284637	-19.260042	-47.284637	-0.507532	-142.579606
9.900000	-0.578861	-164.991797	-19.198276	-47.919328	-19.198276	-47.919328	-0.514134	-143.205257
9.950000	-0.586355	-165.804575	-19.135690	-48.559662	-19.135690	-48.559662	-0.520874	-143.831525
10.000000	-0.593855	-166.617354	-19.073552	-49.199996	-19.073552	-49.199996	-0.527619	-144.457792
