! freq	dB(S11)	phase(S11)	dB(S12)	phase(S12)	
!     	dB(S21)	phase(S21)	dB(S22)	phase(S22)	
!S-par simulation data
#  GHz  S  DB  R 50
0.000000	-0.000000	0.000000	-321.557048	0.000000	-321.557048	0.000000	-0.000000	0.000000
0.050000	-0.000121	-1.002660	-61.917285	88.752733	-61.917285	88.752733	-0.000107	-0.843829
0.100000	-0.000479	-2.005033	-55.925778	87.586848	-55.925778	87.586848	-0.000423	-1.687406
0.150000	-0.001061	-3.006851	-52.439471	86.527465	-52.439471	86.527465	-0.000937	-2.530499
0.200000	-0.001848	-4.007885	-49.974616	85.553381	-49.974616	85.553381	-0.001628	-3.372911
0.250000	-0.002829	-5.007867	-48.066225	84.636080	-48.066225	84.636080	-0.002486	-4.214422
0.300000	-0.003959	-6.006729	-46.507114	83.745685	-46.507114	83.745685	-0.003471	-5.054984
0.350000	-0.005222	-7.004311	-45.188697	82.869305	-45.188697	82.869305	-0.004565	-5.894478
0.400000	-0.006591	-8.000526	-44.046356	81.998180	-44.046356	81.998180	-0.005745	-6.732850
0.450000	-0.008041	-8.995324	-43.038649	81.127812	-43.038649	81.127812	-0.006989	-7.570078
0.500000	-0.009551	-9.988679	-42.137374	80.256096	-42.137374	80.256096	-0.008278	-8.406161
0.550000	-0.011102	-10.980586	-41.322441	79.382202	-41.322441	79.382202	-0.009597	-9.241116
0.600000	-0.012678	-11.971054	-40.579016	78.505956	-40.579016	78.505956	-0.010932	-10.074968
0.650000	-0.014265	-12.960101	-39.895826	77.627502	-39.895826	77.627502	-0.012273	-10.907749
0.700000	-0.015854	-13.947748	-39.264093	76.747125	-39.264093	76.747125	-0.013613	-11.739492
0.750000	-0.017437	-14.934016	-38.676852	75.865166	-38.676852	75.865166	-0.014945	-12.570225
0.800000	-0.019008	-15.918925	-38.128476	74.981971	-38.128476	74.981971	-0.016268	-13.399976
0.850000	-0.020565	-16.902490	-37.614356	74.097873	-37.614356	74.097873	-0.017577	-14.228767
0.900000	-0.022105	-17.884723	-37.130666	73.213180	-37.130666	73.213180	-0.018874	-15.056612
0.950000	-0.023627	-18.865628	-36.674199	72.328177	-36.674199	72.328177	-0.020156	-15.883524
1.000000	-0.025130	-19.845206	-36.242235	71.443119	-36.242235	71.443119	-0.021425	-16.709507
1.050000	-0.026615	-20.823453	-35.832451	70.558242	-35.832451	70.558242	-0.022681	-17.534563
1.100000	-0.028084	-21.800357	-35.442843	69.673757	-35.442843	69.673757	-0.023926	-18.358687
1.150000	-0.029537	-22.775907	-35.071675	68.789856	-35.071675	68.789856	-0.025160	-19.181874
1.200000	-0.030975	-23.750084	-34.717427	67.906717	-34.717427	67.906717	-0.026385	-20.004111
1.250000	-0.032400	-24.722868	-34.378766	67.024501	-34.378766	67.024501	-0.027602	-20.825386
1.300000	-0.033813	-25.694172	-34.054591	66.143409	-34.054591	66.143409	-0.028812	-21.645640
1.350000	-0.035216	-26.664032	-33.743776	65.263539	-33.743776	65.263539	-0.030016	-22.464897
1.400000	-0.036611	-27.632420	-33.445389	64.385016	-33.445389	64.385016	-0.031216	-23.283139
1.450000	-0.037998	-28.599308	-33.158593	63.507959	-33.158593	63.507959	-0.032413	-24.100346
1.500000	-0.039379	-29.564665	-32.882634	62.632480	-32.882634	62.632480	-0.033606	-24.916496
1.550000	-0.040755	-30.528461	-32.616833	61.758681	-32.616833	61.758681	-0.034799	-25.731569
1.600000	-0.042128	-31.490667	-32.360573	60.886662	-32.360573	60.886662	-0.035990	-26.545543
1.650000	-0.043497	-32.451251	-32.113294	60.016516	-32.113294	60.016516	-0.037180	-27.358395
1.700000	-0.044864	-33.410182	-31.874486	59.148331	-31.874486	59.148331	-0.038371	-28.170104
1.750000	-0.046230	-34.367430	-31.643680	58.282190	-31.643680	58.282190	-0.039562	-28.980647
1.800000	-0.047595	-35.322965	-31.420447	57.418175	-31.420447	57.418175	-0.040754	-29.790004
1.850000	-0.048961	-36.276756	-31.204393	56.556361	-31.204393	56.556361	-0.041948	-30.598151
1.900000	-0.050327	-37.228774	-30.995154	55.696820	-30.995154	55.696820	-0.043144	-31.405067
1.950000	-0.051694	-38.178990	-30.792393	54.839624	-30.792393	54.839624	-0.044342	-32.210731
2.000000	-0.053062	-39.127377	-30.595800	53.984839	-30.595800	53.984839	-0.045542	-33.015123
2.050000	-0.054433	-40.073907	-30.405084	53.132529	-30.405084	53.132529	-0.046745	-33.818221
2.100000	-0.055806	-41.018554	-30.219977	52.282756	-30.219977	52.282756	-0.047951	-34.620006
2.150000	-0.057182	-41.961291	-30.040227	51.435579	-30.040227	51.435579	-0.049160	-35.420458
2.200000	-0.058561	-42.902094	-29.865600	50.591055	-29.865600	50.591055	-0.050373	-36.219557
2.250000	-0.059944	-43.840938	-29.695878	49.749239	-29.695878	49.749239	-0.051589	-37.017285
2.300000	-0.061331	-44.777801	-29.530853	48.910184	-29.530853	48.910184	-0.052809	-37.813624
2.350000	-0.062721	-45.712661	-29.370334	48.073940	-29.370334	48.073940	-0.054033	-38.608555
2.400000	-0.064117	-46.645495	-29.214139	47.240557	-29.214139	47.240557	-0.055261	-39.402061
2.450000	-0.065517	-47.576284	-29.062097	46.410080	-29.062097	46.410080	-0.056494	-40.194126
2.500000	-0.066922	-48.505008	-28.914047	45.582556	-28.914047	45.582556	-0.057731	-40.984732
2.550000	-0.068332	-49.431557	-28.769895	44.758161	-28.769895	44.758161	-0.058974	-41.773800
2.600000	-0.069749	-50.356003	-28.629438	43.936806	-28.629438	43.936806	-0.060221	-42.561376
2.650000	-0.071171	-51.278330	-28.492537	43.118533	-28.492537	43.118533	-0.061474	-43.347447
2.700000	-0.072600	-52.198522	-28.359064	42.303379	-28.359064	42.303379	-0.062733	-44.131997
2.750000	-0.074035	-53.116564	-28.228895	41.491381	-28.228895	41.491381	-0.063997	-44.915013
2.800000	-0.075478	-54.032443	-28.101915	40.682575	-28.101915	40.682575	-0.065268	-45.696481
2.850000	-0.076927	-54.946145	-27.978011	39.876995	-27.978011	39.876995	-0.066544	-46.476389
2.900000	-0.078385	-55.857659	-27.857077	39.074672	-27.857077	39.074672	-0.067828	-47.254723
2.950000	-0.079850	-56.766974	-27.739013	38.275638	-27.739013	38.275638	-0.069118	-48.031473
3.000000	-0.081323	-57.674079	-27.623722	37.479923	-27.623722	37.479923	-0.070415	-48.806625
3.050000	-0.082805	-58.578965	-27.511110	36.687555	-27.511110	36.687555	-0.071720	-49.580170
3.100000	-0.084297	-59.481623	-27.401090	35.898560	-27.401090	35.898560	-0.073032	-50.352096
3.150000	-0.085797	-60.382047	-27.293578	35.112964	-27.293578	35.112964	-0.074352	-51.122395
3.200000	-0.087308	-61.280230	-27.188491	34.330791	-27.188491	34.330791	-0.075681	-51.891055
3.250000	-0.088828	-62.176165	-27.085751	33.552065	-27.085751	33.552065	-0.077018	-52.658067
3.300000	-0.090360	-63.069848	-26.985284	32.776807	-26.985284	32.776807	-0.078365	-53.423424
3.350000	-0.091902	-63.961275	-26.887018	32.005038	-26.887018	32.005038	-0.079721	-54.187117
3.400000	-0.093456	-64.850443	-26.790883	31.236776	-26.790883	31.236776	-0.081086	-54.949139
3.450000	-0.095022	-65.737349	-26.696812	30.472041	-26.696812	30.472041	-0.082461	-55.709481
3.500000	-0.096600	-66.621992	-26.604741	29.710848	-26.604741	29.710848	-0.083847	-56.468137
3.550000	-0.098190	-67.504371	-26.514608	28.953214	-26.514608	28.953214	-0.085244	-57.225102
3.600000	-0.099794	-68.384486	-26.426352	28.199153	-26.426352	28.199153	-0.086651	-57.980368
3.650000	-0.101412	-69.262338	-26.339915	27.448678	-26.339915	27.448678	-0.088070	-58.733931
3.700000	-0.103044	-70.137929	-26.255242	26.701801	-26.255242	26.701801	-0.089501	-59.485786
3.750000	-0.104690	-71.011261	-26.172278	25.958534	-26.172278	25.958534	-0.090944	-60.235928
3.800000	-0.106352	-71.882240	-26.091007	25.219045	-26.091007	25.219045	-0.092401	-60.984278
3.850000	-0.108030	-72.750967	-26.011339	24.483183	-26.011339	24.483183	-0.093870	-61.730908
3.900000	-0.109724	-73.617449	-25.933226	23.750958	-25.933226	23.750958	-0.095353	-62.475814
3.950000	-0.111434	-74.481690	-25.856618	23.022376	-25.856618	23.022376	-0.096849	-63.218993
4.000000	-0.113161	-75.343697	-25.781469	22.297441	-25.781469	22.297441	-0.098360	-63.960444
4.050000	-0.114906	-76.203477	-25.707733	21.576158	-25.707733	21.576158	-0.099886	-64.700165
4.100000	-0.116669	-77.061037	-25.635367	20.858529	-25.635367	20.858529	-0.101426	-65.438155
4.150000	-0.118450	-77.916388	-25.564328	20.144556	-25.564328	20.144556	-0.102982	-66.174412
4.200000	-0.120250	-78.769537	-25.494573	19.434241	-25.494573	19.434241	-0.104554	-66.908937
4.250000	-0.122070	-79.620494	-25.426062	18.727582	-25.426062	18.727582	-0.106142	-67.641729
4.300000	-0.123909	-80.469271	-25.358755	18.024578	-25.358755	18.024578	-0.107747	-68.372788
4.350000	-0.125770	-81.315879	-25.292613	17.325226	-25.292613	17.325226	-0.109369	-69.102117
4.400000	-0.127651	-82.160330	-25.227598	16.629522	-25.227598	16.629522	-0.111009	-69.829715
4.450000	-0.129553	-83.002636	-25.163674	15.937461	-25.163674	15.937461	-0.112667	-70.555585
4.500000	-0.131478	-83.842811	-25.100804	15.249037	-25.100804	15.249037	-0.114343	-71.279729
4.550000	-0.133425	-84.680868	-25.038952	14.564242	-25.038952	14.564242	-0.116038	-72.002149
4.600000	-0.135395	-85.516823	-24.978085	13.883067	-24.978085	13.883067	-0.117752	-72.722848
4.650000	-0.137388	-86.350691	-24.918168	13.205504	-24.918168	13.205504	-0.119486	-73.441830
4.700000	-0.139406	-87.182487	-24.859169	12.531539	-24.859169	12.531539	-0.121240	-74.159099
4.750000	-0.141448	-88.012228	-24.801054	11.861162	-24.801054	11.861162	-0.123015	-74.874658
4.800000	-0.143515	-88.839932	-24.743791	11.194358	-24.743791	11.194358	-0.124811	-75.588512
4.850000	-0.145607	-89.665615	-24.687350	10.531113	-24.687350	10.531113	-0.126628	-76.300666
4.900000	-0.147725	-90.489296	-24.631700	9.871410	-24.631700	9.871410	-0.128467	-77.011125
4.950000	-0.149870	-91.310994	-24.576811	9.215232	-24.576811	9.215232	-0.130329	-77.719896
5.000000	-0.152042	-92.130729	-24.522654	8.562559	-24.522654	8.562559	-0.132214	-78.426983
5.050000	-0.154257	-92.947434	-24.469394	7.915328	-24.469394	7.915328	-0.134135	-79.131450
5.100000	-0.156472	-93.764139	-24.416460	7.268098	-24.416460	7.268098	-0.136056	-79.835918
5.150000	-0.158741	-94.577212	-24.364467	6.627442	-24.364467	6.627442	-0.138023	-80.537207
5.200000	-0.161016	-95.389954	-24.312839	5.987384	-24.312839	5.987384	-0.139995	-81.238207
5.250000	-0.163342	-96.199474	-24.262009	5.353209	-24.262009	5.353209	-0.142011	-81.936346
5.300000	-0.165678	-97.008350	-24.211572	4.720211	-24.211572	4.720211	-0.144035	-82.633913
5.350000	-0.168062	-97.814401	-24.161806	4.092414	-24.161806	4.092414	-0.146101	-83.328932
5.400000	-0.170463	-98.619511	-24.112448	3.466351	-24.112448	3.466351	-0.148180	-84.023103
5.450000	-0.172906	-99.422180	-24.063650	2.844817	-24.063650	2.844817	-0.150296	-84.715035
5.500000	-0.175372	-100.223629	-24.015263	2.225547	-24.015263	2.225547	-0.152432	-85.405849
5.550000	-0.177878	-101.023008	-23.967340	1.610151	-23.967340	1.610151	-0.154602	-86.094731
5.600000	-0.180412	-101.820906	-23.919818	0.997520	-23.919818	0.997520	-0.156796	-86.782232
5.650000	-0.182981	-102.617087	-23.872680	0.388124	-23.872680	0.388124	-0.159021	-87.468099
5.700000	-0.185585	-103.411550	-23.825921	-0.218039	-23.825921	-0.218039	-0.161275	-88.152333
5.750000	-0.188219	-104.204631	-23.779482	-0.821584	-23.779482	-0.821584	-0.163556	-88.835226
5.800000	-0.190895	-104.995777	-23.733386	-1.421466	-23.733386	-1.421466	-0.165874	-89.516241
5.850000	-0.193597	-105.785858	-23.687561	-2.019321	-23.687561	-2.019321	-0.168213	-90.196202
5.900000	-0.196347	-106.573809	-23.642033	-2.613126	-23.642033	-2.613126	-0.170595	-90.874051
5.950000	-0.199117	-107.360993	-23.596741	-3.205466	-23.596741	-3.205466	-0.172994	-91.551122
6.000000	-0.201943	-108.145877	-23.551686	-3.793413	-23.551686	-3.793413	-0.175443	-92.225859
6.050000	-0.204784	-108.930272	-23.506850	-4.380424	-23.506850	-4.380424	-0.177903	-92.900087
6.100000	-0.207688	-109.712219	-23.462178	-4.962753	-23.462178	-4.962753	-0.180421	-93.571769
6.150000	-0.210601	-110.493933	-23.417722	-5.544635	-23.417722	-5.544635	-0.182945	-94.243201
6.200000	-0.213586	-111.273078	-23.373346	-6.121601	-23.373346	-6.121601	-0.185533	-94.911888
6.250000	-0.216572	-112.052223	-23.329195	-6.698567	-23.329195	-6.698567	-0.188122	-95.580574
6.300000	-0.219639	-112.828706	-23.285031	-7.270444	-23.285031	-7.270444	-0.190783	-96.246327
6.350000	-0.222708	-113.605188	-23.241090	-7.842321	-23.241090	-7.842321	-0.193445	-96.912079
6.400000	-0.225852	-114.379359	-23.197083	-8.409800	-23.197083	-8.409800	-0.196175	-97.575202
6.450000	-0.229005	-115.153320	-23.153272	-8.976880	-23.153272	-8.976880	-0.198912	-98.238085
6.500000	-0.232229	-115.925302	-23.109357	-9.540219	-23.109357	-9.540219	-0.201712	-98.898632
6.550000	-0.235468	-116.696888	-23.065598	-10.102811	-23.065598	-10.102811	-0.204526	-99.558713
6.600000	-0.238773	-117.466806	-23.021714	-10.662282	-23.021714	-10.662282	-0.207399	-100.216743
6.650000	-0.242100	-118.236166	-22.977935	-11.220712	-22.977935	-11.220712	-0.210292	-100.874090
6.700000	-0.245487	-119.004146	-22.934022	-11.776598	-22.934022	-11.776598	-0.213239	-101.529661
6.750000	-0.248904	-119.771434	-22.890153	-12.331211	-22.890153	-12.331211	-0.216213	-102.184345
6.800000	-0.252375	-120.537605	-22.846156	-12.883807	-22.846156	-12.883807	-0.219236	-102.837519
6.850000	-0.255885	-121.302978	-22.802132	-13.434963	-22.802132	-13.434963	-0.222294	-103.489613
6.900000	-0.259442	-122.067473	-22.757998	-13.984578	-22.757998	-13.984578	-0.225394	-104.140450
6.950000	-0.263046	-122.831091	-22.713758	-14.532652	-22.713758	-14.532652	-0.228537	-104.790031
7.000000	-0.266690	-123.594045	-22.669439	-15.079603	-22.669439	-15.079603	-0.231717	-105.438596
7.050000	-0.270390	-124.356070	-22.624924	-15.624984	-22.624924	-15.624984	-0.234948	-106.085739
7.100000	-0.274123	-125.117621	-22.580374	-16.169601	-22.580374	-16.169601	-0.238209	-106.732097
7.150000	-0.277921	-125.878221	-22.535532	-16.712691	-22.535532	-16.712691	-0.241529	-107.376883
7.200000	-0.281744	-126.638508	-22.490711	-17.255310	-22.490711	-17.255310	-0.244873	-108.021100
7.250000	-0.285642	-127.397854	-22.445493	-17.796520	-22.445493	-17.796520	-0.248285	-108.663610
7.300000	-0.289558	-128.157021	-22.400362	-18.337487	-22.400362	-18.337487	-0.251714	-109.305754
7.350000	-0.293557	-128.915286	-22.354726	-18.877238	-22.354726	-18.877238	-0.255220	-109.946071
7.400000	-0.297567	-129.673477	-22.309250	-19.416903	-22.309250	-19.416903	-0.258735	-110.586212
7.450000	-0.301670	-130.430840	-22.263157	-19.955622	-22.263157	-19.955622	-0.262337	-111.224421
7.500000	-0.305775	-131.188202	-22.217307	-20.494341	-22.217307	-20.494341	-0.265941	-111.862630
7.550000	-0.309983	-131.944843	-22.170723	-21.032459	-22.170723	-21.032459	-0.269641	-112.498818
7.600000	-0.314194	-132.701484	-22.124387	-21.570577	-22.124387	-21.570577	-0.273343	-113.135006
7.650000	-0.318501	-133.457631	-22.077368	-22.108539	-22.077368	-22.108539	-0.277135	-113.769423
7.700000	-0.322819	-134.213734	-22.030519	-22.646486	-22.030519	-22.646486	-0.280938	-114.403679
7.750000	-0.327227	-134.969545	-21.983048	-23.184651	-21.983048	-23.184651	-0.284824	-115.036400
7.800000	-0.331655	-135.725298	-21.935662	-23.722858	-21.935662	-23.722858	-0.288729	-115.668814
7.850000	-0.336164	-136.480932	-21.887725	-24.261580	-21.887725	-24.261580	-0.292711	-116.299915
7.900000	-0.340703	-137.236527	-21.839783	-24.800472	-21.839783	-24.800472	-0.296720	-116.930580
7.950000	-0.345316	-137.992146	-21.791370	-25.340099	-21.791370	-25.340099	-0.300800	-117.560141
8.000000	-0.349967	-138.747777	-21.742860	-25.880094	-21.742860	-25.880094	-0.304916	-118.189150
8.050000	-0.354685	-139.503545	-21.693964	-26.420968	-21.693964	-26.420968	-0.309095	-118.817249
8.100000	-0.359451	-140.259411	-21.644876	-26.962470	-21.644876	-26.962470	-0.313320	-119.444699
8.150000	-0.364275	-141.015496	-21.595495	-27.504923	-21.595495	-27.504923	-0.317600	-120.071417
8.200000	-0.369158	-141.771800	-21.545826	-28.048327	-21.545826	-28.048327	-0.321936	-120.697405
8.250000	-0.374091	-142.528372	-21.495959	-28.592679	-21.495959	-28.592679	-0.326319	-121.322824
8.300000	-0.379091	-143.285320	-21.445708	-29.138359	-21.445708	-29.138359	-0.330768	-121.947449
8.350000	-0.384133	-144.042552	-21.395359	-29.684918	-21.395359	-29.684918	-0.335256	-122.571654
8.400000	-0.389254	-144.800354	-21.344530	-30.233233	-21.344530	-30.233233	-0.339820	-123.195017
8.450000	-0.394407	-145.558423	-21.293705	-30.782290	-21.293705	-30.782290	-0.344415	-123.818090
8.500000	-0.399649	-146.317292	-21.242305	-31.333575	-21.242305	-31.333575	-0.349096	-124.440295
8.550000	-0.404914	-147.076376	-21.191013	-31.885406	-21.191013	-31.885406	-0.353799	-125.062324
8.600000	-0.410280	-147.836531	-21.139052	-32.439974	-21.139052	-32.439974	-0.358599	-125.683474
8.650000	-0.415659	-148.596812	-21.087303	-32.994839	-21.087303	-32.994839	-0.363412	-126.304546
8.700000	-0.421149	-149.358475	-21.034793	-33.552977	-21.034793	-33.552977	-0.368334	-126.924748
8.750000	-0.426643	-150.120138	-20.982599	-34.111115	-20.982599	-34.111115	-0.373258	-127.544951
8.800000	-0.432260	-150.883535	-20.929555	-34.673086	-20.929555	-34.673086	-0.378304	-128.164314
8.850000	-0.437881	-151.646932	-20.876833	-35.235056	-20.876833	-35.235056	-0.383352	-128.783677
8.900000	-0.443616	-152.412129	-20.823368	-35.800756	-20.823368	-35.800756	-0.388512	-129.402372
8.950000	-0.449364	-153.177490	-20.770133	-36.366795	-20.770133	-36.366795	-0.393686	-130.021006
9.000000	-0.455218	-153.944684	-20.716262	-36.936397	-20.716262	-36.936397	-0.398963	-130.639126
9.050000	-0.461096	-154.712245	-20.662531	-37.506713	-20.662531	-37.506713	-0.404264	-131.257142
9.100000	-0.467071	-155.481634	-20.608269	-38.080373	-20.608269	-38.080373	-0.409661	-131.874781
9.150000	-0.473080	-156.251633	-20.554058	-38.655148	-20.554058	-38.655148	-0.415091	-132.492294
9.200000	-0.479175	-157.023419	-20.499421	-39.233001	-20.499421	-39.233001	-0.420608	-133.109549
9.250000	-0.485316	-157.796100	-20.444747	-39.812392	-20.444747	-39.812392	-0.426170	-133.726674
9.300000	-0.491535	-158.570490	-20.389749	-40.394554	-20.389749	-40.394554	-0.431809	-134.343643
9.350000	-0.497809	-159.346101	-20.334625	-40.978694	-20.334625	-40.978694	-0.437504	-134.960498
9.400000	-0.504151	-160.123304	-20.279281	-41.565265	-20.279281	-41.565265	-0.443267	-135.577279
9.450000	-0.510560	-160.902098	-20.223722	-42.154265	-20.223722	-42.154265	-0.449097	-136.193985
9.500000	-0.517026	-161.682326	-20.168042	-42.745328	-20.168042	-42.745328	-0.454985	-136.810679
9.550000	-0.523571	-162.464562	-20.112059	-43.339278	-20.112059	-43.339278	-0.460952	-137.427357
9.600000	-0.530163	-163.248032	-20.056055	-43.934902	-20.056055	-43.934902	-0.466967	-138.044067
9.650000	-0.536844	-164.033971	-19.999657	-44.533875	-19.999657	-44.533875	-0.473073	-138.660841
9.700000	-0.543562	-164.820903	-19.943337	-45.134118	-19.943337	-45.134118	-0.479216	-139.277671
9.750000	-0.550380	-165.610814	-19.886530	-45.738172	-19.886530	-45.738172	-0.485463	-139.894668
9.800000	-0.557225	-166.401432	-19.829901	-46.343080	-19.829901	-46.343080	-0.491736	-140.511723
9.850000	-0.564181	-167.195587	-19.772689	-46.952260	-19.772689	-46.952260	-0.498124	-141.129072
9.900000	-0.571153	-167.990118	-19.715754	-47.561871	-19.715754	-47.561871	-0.504529	-141.746460
9.950000	-0.578247	-168.788795	-19.658135	-48.176216	-19.658135	-48.176216	-0.511061	-142.364291
10.000000	-0.585347	-169.587472	-19.600896	-48.790561	-19.600896	-48.790561	-0.517599	-142.982122
