! freq	dB(S11)	phase(S11)	dB(S12)	phase(S12)	
!     	dB(S21)	phase(S21)	dB(S22)	phase(S22)	
!S-par simulation data
#  GHz  S  DB  R 50
0.000000	-0.000000	0.000000	-335.969796	0.000000	-335.969796	0.000000	-0.000000	0.000000
0.050000	-0.000099	-0.793569	-70.857068	88.056051	-70.857068	88.056051	-0.000098	-0.788703
0.100000	-0.000394	-1.586899	-64.969949	86.996517	-64.969949	86.996517	-0.000390	-1.577171
0.150000	-0.000871	-2.379768	-61.533311	86.328448	-61.533311	86.328448	-0.000862	-2.365183
0.200000	-0.001513	-3.171993	-59.083753	85.724598	-59.083753	85.724598	-0.001497	-3.152559
0.250000	-0.002307	-3.963366	-57.175963	85.101150	-57.175963	85.101150	-0.002282	-3.939094
0.300000	-0.003216	-4.753849	-55.613174	84.449539	-55.613174	84.449539	-0.003181	-4.724750
0.350000	-0.004222	-5.543331	-54.290117	83.772664	-54.290117	83.772664	-0.004177	-5.509417
0.400000	-0.005303	-6.331770	-53.143570	83.076192	-53.143570	83.076192	-0.005247	-6.293054
0.450000	-0.006439	-7.119152	-52.132515	82.365004	-52.132515	82.365004	-0.006371	-7.075645
0.500000	-0.007611	-7.905481	-51.228803	81.642822	-51.228803	81.642822	-0.007532	-7.857197
0.550000	-0.008805	-8.690779	-50.412272	80.912414	-50.412272	80.912414	-0.008714	-8.637729
0.600000	-0.010009	-9.475076	-49.667986	80.175838	-49.667986	80.175838	-0.009906	-9.417272
0.650000	-0.011213	-10.258406	-48.984571	79.434648	-48.984571	79.434648	-0.011099	-10.195859
0.700000	-0.012412	-11.040803	-48.353168	78.690033	-48.353168	78.690033	-0.012286	-10.973524
0.750000	-0.013599	-11.822298	-47.766738	77.942922	-47.766738	77.942922	-0.013462	-11.750297
0.800000	-0.014773	-12.602918	-47.219599	77.194055	-47.219599	77.194055	-0.014624	-12.526208
0.850000	-0.015931	-13.382687	-46.707099	76.444030	-46.707099	76.444030	-0.015771	-13.301277
0.900000	-0.017073	-14.161621	-46.225377	75.693340	-46.225377	75.693340	-0.016902	-14.075522
0.950000	-0.018198	-14.939731	-45.771198	74.942399	-45.771198	74.942399	-0.018017	-14.848954
1.000000	-0.019308	-15.717025	-45.341821	74.191558	-45.341821	74.191558	-0.019116	-15.621581
1.050000	-0.020403	-16.493504	-44.934905	73.441122	-44.934905	73.441122	-0.020201	-16.393404
1.100000	-0.021484	-17.269166	-44.548435	72.691359	-44.548435	72.691359	-0.021272	-17.164422
1.150000	-0.022553	-18.044005	-44.180660	71.942504	-44.180660	71.942504	-0.022330	-17.934630
1.200000	-0.023610	-18.818013	-43.830056	71.194773	-43.830056	71.194773	-0.023377	-18.704018
1.250000	-0.024658	-19.591180	-43.495283	70.448359	-43.495283	70.448359	-0.024415	-19.472577
1.300000	-0.025696	-20.363452	-43.175255	69.703514	-43.175255	69.703514	-0.025443	-20.240256
1.350000	-0.026727	-21.134853	-42.868824	68.960344	-42.868824	68.960344	-0.026463	-21.007075
1.400000	-0.027751	-21.905366	-42.575051	68.219005	-42.575051	68.219005	-0.027477	-21.773020
1.450000	-0.028769	-22.674973	-42.293097	67.479640	-42.293097	67.479640	-0.028486	-22.538073
1.500000	-0.029782	-23.443657	-42.022209	66.742389	-42.022209	66.742389	-0.029489	-23.302217
1.550000	-0.030792	-24.211397	-41.761706	66.007384	-41.761706	66.007384	-0.030489	-24.065431
1.600000	-0.031798	-24.978176	-41.510969	65.274752	-41.510969	65.274752	-0.031486	-24.827699
1.650000	-0.032802	-25.743974	-41.269440	64.544615	-41.269440	64.544615	-0.032480	-25.589000
1.700000	-0.033803	-26.508414	-41.037379	63.818056	-41.037379	63.818056	-0.033471	-26.348964
1.750000	-0.034803	-27.272325	-40.812471	63.092901	-40.812471	63.092901	-0.034462	-27.108407
1.800000	-0.035803	-28.034961	-40.595863	62.371263	-40.595863	62.371263	-0.035452	-27.866593
1.850000	-0.036801	-28.796685	-40.386353	61.652135	-40.386353	61.652135	-0.036441	-28.623882
1.900000	-0.037799	-29.557275	-40.184000	60.936258	-40.184000	60.936258	-0.037430	-29.380053
1.950000	-0.038798	-30.316729	-39.988428	60.223631	-39.988428	60.223631	-0.038419	-30.135105
2.000000	-0.039797	-31.075203	-39.798990	59.513902	-39.798990	59.513902	-0.039409	-30.889191
2.050000	-0.040797	-31.832305	-39.616102	58.808231	-39.616102	58.808231	-0.040400	-31.641926
2.100000	-0.041798	-32.588596	-39.438428	58.105028	-39.438428	58.105028	-0.041392	-32.393861
2.150000	-0.042801	-33.343266	-39.267143	57.406758	-39.267143	57.406758	-0.042385	-33.144199
2.200000	-0.043804	-34.097309	-39.100235	56.710447	-39.100235	56.710447	-0.043380	-33.893919
2.250000	-0.044811	-34.849471	-38.939609	56.020013	-38.939609	56.020013	-0.044378	-34.641785
2.300000	-0.045819	-35.601203	-38.782597	55.330955	-38.782597	55.330955	-0.045377	-35.389227
2.350000	-0.046831	-36.350783	-38.631801	54.648781	-38.631801	54.648781	-0.046380	-36.134548
2.400000	-0.047844	-37.100142	-38.483921	53.967331	-38.483921	53.967331	-0.047384	-36.879651
2.450000	-0.048862	-37.847070	-38.342221	53.293837	-38.342221	53.293837	-0.048394	-37.622358
2.500000	-0.049881	-38.593998	-38.202796	52.620343	-38.202796	52.620343	-0.049403	-38.365065
2.550000	-0.050907	-39.338207	-38.069536	51.955941	-38.069536	51.955941	-0.050421	-39.105091
2.600000	-0.051933	-40.082416	-37.938291	51.291540	-37.938291	51.291540	-0.051438	-39.845117
2.650000	-0.052968	-40.824075	-37.812557	50.635846	-37.812557	50.635846	-0.052464	-40.582628
2.700000	-0.054003	-41.565502	-37.688936	49.980944	-37.688936	49.980944	-0.053491	-41.319911
2.750000	-0.055047	-42.304560	-37.570211	49.334294	-37.570211	49.334294	-0.054525	-42.054857
2.800000	-0.056092	-43.043144	-37.453712	48.689294	-37.453712	48.689294	-0.055562	-42.789336
2.850000	-0.057146	-43.779553	-37.341530	48.052018	-37.341530	48.052018	-0.056607	-43.521670
2.900000	-0.058203	-44.515238	-37.231693	47.417318	-37.231693	47.417318	-0.057656	-44.253289
2.950000	-0.059269	-45.248954	-37.125630	46.789744	-37.125630	46.789744	-0.058712	-44.982966
3.000000	-0.060339	-45.981686	-37.022035	46.165735	-37.022035	46.165735	-0.059774	-45.711672
3.050000	-0.061417	-46.712666	-36.921703	45.548188	-36.921703	45.548188	-0.060843	-46.438650
3.100000	-0.062501	-47.442396	-36.823961	44.935257	-36.823961	44.935257	-0.061918	-47.164393
3.150000	-0.063594	-48.170600	-36.729004	44.328057	-36.729004	44.328057	-0.063002	-47.888632
3.200000	-0.064694	-48.897279	-36.636755	43.726587	-36.636755	43.726587	-0.064093	-48.611366
3.250000	-0.065801	-49.622671	-36.546844	43.130048	-36.546844	43.130048	-0.065191	-49.332828
3.300000	-0.066919	-50.346258	-36.459751	42.540415	-36.459751	42.540415	-0.066300	-50.052510
3.350000	-0.068043	-51.068800	-36.374579	41.954850	-36.374579	41.954850	-0.067415	-50.771161
3.400000	-0.069179	-51.789255	-36.292328	41.377423	-36.292328	41.377423	-0.068542	-51.487750
3.450000	-0.070321	-52.508918	-36.211610	40.803139	-36.211610	40.803139	-0.069675	-52.203558
3.500000	-0.071478	-53.226204	-36.133902	40.238281	-36.133902	40.238281	-0.070822	-52.917019
3.550000	-0.072639	-53.942956	-36.057370	39.675578	-36.057370	39.675578	-0.071974	-53.629953
3.600000	-0.073818	-54.657041	-35.983923	39.123644	-35.983923	39.123644	-0.073143	-54.340253
3.650000	-0.074999	-55.370856	-35.911325	38.572817	-35.911325	38.572817	-0.074315	-55.050287
3.700000	-0.076202	-56.081709	-35.841870	38.034154	-35.841870	38.034154	-0.075508	-55.757395
3.750000	-0.077405	-56.792563	-35.772966	37.495492	-35.772966	37.495492	-0.076702	-56.464504
3.800000	-0.078633	-57.500159	-35.707245	36.970436	-35.707245	36.970436	-0.077920	-57.168395
3.850000	-0.079862	-58.207756	-35.642017	36.445380	-35.642017	36.445380	-0.079139	-57.872286
3.900000	-0.081115	-58.912346	-35.579571	35.933093	-35.579571	35.933093	-0.080382	-58.573207
3.950000	-0.082371	-59.616663	-35.517778	35.421968	-35.517778	35.421968	-0.081628	-59.273857
4.000000	-0.083650	-60.318230	-35.458390	34.922711	-35.458390	34.922711	-0.082897	-59.971791
4.050000	-0.084935	-61.019248	-35.399796	34.425827	-35.399796	34.425827	-0.084172	-60.669181
4.100000	-0.086242	-61.717780	-35.343257	33.939847	-35.343257	33.939847	-0.085468	-61.364114
4.150000	-0.087557	-62.415483	-35.287634	33.457501	-35.287634	33.457501	-0.086773	-62.058228
4.200000	-0.088893	-63.110968	-35.233741	32.985032	-35.233741	32.985032	-0.088099	-62.750149
4.250000	-0.090240	-63.805343	-35.180865	32.517502	-35.180865	32.517502	-0.089435	-63.440972
4.300000	-0.091607	-64.497772	-35.129422	32.058766	-35.129422	32.058766	-0.090791	-64.129871
4.350000	-0.092988	-65.188811	-35.079072	31.606309	-35.079072	31.606309	-0.092161	-64.817396
4.400000	-0.094386	-65.878178	-35.029887	31.161508	-35.029887	31.161508	-0.093549	-65.503267
4.450000	-0.095803	-66.565874	-34.981847	30.724361	-34.981847	30.724361	-0.094954	-66.187484
4.500000	-0.097235	-67.252176	-34.934730	30.293680	-34.934730	30.293680	-0.096375	-66.870323
4.550000	-0.098689	-67.936527	-34.888784	29.872050	-34.888784	29.872050	-0.097818	-67.551230
4.600000	-0.100156	-68.619762	-34.843551	29.455654	-34.843551	29.455654	-0.099273	-68.231034
4.650000	-0.101649	-69.300767	-34.799486	29.049721	-34.799486	29.049721	-0.100754	-68.908631
4.700000	-0.103152	-69.980937	-34.755953	28.647749	-34.755953	28.647749	-0.102246	-69.585401
4.750000	-0.104685	-70.658600	-34.713557	28.257659	-34.713557	28.257659	-0.103767	-70.259690
4.800000	-0.106226	-71.335707	-34.671543	27.870226	-34.671543	27.870226	-0.105296	-70.933428
4.850000	-0.107802	-72.010035	-34.630603	27.496085	-34.630603	27.496085	-0.106860	-71.604414
4.900000	-0.109382	-72.684085	-34.589928	27.123278	-34.589928	27.123278	-0.108427	-72.275126
4.950000	-0.111002	-73.355087	-34.550234	26.765149	-34.550234	26.765149	-0.110035	-72.942818
5.000000	-0.112622	-74.026089	-34.510720	26.407020	-34.510720	26.407020	-0.111642	-73.610510
5.050000	-0.114288	-74.693778	-34.472058	26.064921	-34.472058	26.064921	-0.113295	-74.274920
5.100000	-0.115954	-75.361466	-34.433568	25.722821	-34.433568	25.722821	-0.114949	-74.939330
5.150000	-0.117663	-76.026131	-34.395688	25.395382	-34.395688	25.395382	-0.116645	-75.600743
5.200000	-0.119377	-76.690521	-34.358011	25.069276	-34.358011	25.069276	-0.118345	-76.261884
5.250000	-0.121131	-77.352178	-34.320733	24.756418	-34.320733	24.756418	-0.120086	-76.920316
5.300000	-0.122894	-78.013289	-34.283661	24.446209	-34.283661	24.446209	-0.121835	-77.578205
5.350000	-0.124695	-78.671955	-34.246807	24.147806	-34.246807	24.147806	-0.123622	-78.233671
5.400000	-0.126508	-79.329806	-34.210129	23.853337	-34.210129	23.853337	-0.125422	-78.888329
5.450000	-0.128357	-79.985500	-34.173524	23.569211	-34.173524	23.569211	-0.127256	-79.540847
5.500000	-0.130223	-80.640115	-34.137032	23.290255	-34.137032	23.290255	-0.129108	-80.192295
5.550000	-0.132120	-81.292859	-34.100500	23.020173	-34.100500	23.020173	-0.130991	-80.841886
5.600000	-0.134041	-81.944265	-34.063985	22.756428	-34.063985	22.756428	-0.132897	-81.490150
5.650000	-0.135989	-82.594080	-34.027355	22.500100	-34.027355	22.500100	-0.134830	-82.136835
5.700000	-0.137965	-83.242306	-33.990612	22.251187	-33.990612	22.251187	-0.136791	-82.781941
5.750000	-0.139965	-83.889219	-33.953713	22.008261	-33.953713	22.008261	-0.138776	-83.425745
5.800000	-0.141998	-84.534295	-33.916539	21.773717	-33.916539	21.773717	-0.140795	-84.067724
5.850000	-0.144052	-85.178332	-33.879205	21.543780	-33.879205	21.543780	-0.142832	-84.708671
5.900000	-0.146144	-85.820292	-33.841400	21.323056	-33.841400	21.323056	-0.144909	-85.347556
5.950000	-0.148252	-86.461482	-33.803469	21.105627	-33.803469	21.105627	-0.147001	-85.985675
6.000000	-0.150406	-87.100362	-33.764840	20.898084	-33.764840	20.898084	-0.149139	-86.621498
6.050000	-0.152570	-87.738735	-33.726155	20.692618	-33.726155	20.692618	-0.151286	-87.256818
6.100000	-0.154785	-88.374573	-33.686514	20.497529	-33.686514	20.497529	-0.153486	-87.889618
6.150000	-0.157007	-89.010162	-33.646923	20.303411	-33.646923	20.303411	-0.155690	-88.522169
6.200000	-0.159286	-89.642999	-33.606091	20.119959	-33.606091	20.119959	-0.157953	-89.151984
6.250000	-0.161566	-90.275836	-33.565450	19.936508	-33.565450	19.936508	-0.160216	-89.781799
6.300000	-0.163911	-90.905715	-33.523258	19.763788	-33.523258	19.763788	-0.162544	-90.408670
6.350000	-0.166257	-91.535593	-33.481270	19.591067	-33.481270	19.591067	-0.164872	-91.035542
6.400000	-0.168663	-92.162801	-33.437721	19.427277	-33.437721	19.427277	-0.167261	-91.659755
6.450000	-0.171076	-92.789765	-33.394230	19.264299	-33.394230	19.264299	-0.169655	-92.283726
6.500000	-0.173546	-93.414341	-33.349208	19.108548	-33.349208	19.108548	-0.172107	-92.905318
6.550000	-0.176027	-94.038438	-33.304070	18.954243	-33.304070	18.954243	-0.174570	-93.526433
6.600000	-0.178561	-94.660422	-33.257471	18.805588	-33.257471	18.805588	-0.177085	-94.145443
6.650000	-0.181112	-95.281702	-33.210559	18.658817	-33.210559	18.658817	-0.179618	-94.763751
6.700000	-0.183712	-95.901136	-33.162291	18.516266	-33.162291	18.516266	-0.182198	-95.380220
6.750000	-0.186335	-96.519647	-33.113492	18.375825	-33.113492	18.375825	-0.184802	-95.995769
6.800000	-0.189001	-97.136575	-33.063479	18.238346	-33.063479	18.238346	-0.187448	-96.609738
6.850000	-0.191698	-97.752371	-33.012698	18.102984	-33.012698	18.102984	-0.190125	-97.222579
6.900000	-0.194432	-98.366838	-32.960877	17.969514	-32.960877	17.969514	-0.192839	-97.834092
6.950000	-0.197203	-98.979973	-32.908037	17.837937	-32.908037	17.837937	-0.195591	-98.444278
7.000000	-0.200007	-99.592024	-32.854360	17.707390	-32.854360	17.707390	-0.198373	-99.053379
7.050000	-0.202854	-100.202555	-32.799404	17.578284	-32.799404	17.578284	-0.201200	-99.660964
7.100000	-0.205728	-100.812237	-32.743839	17.449560	-32.743839	17.449560	-0.204053	-100.267701
7.150000	-0.208654	-101.420221	-32.686731	17.321599	-32.686731	17.321599	-0.206958	-100.872741
7.200000	-0.211600	-102.027584	-32.629262	17.193596	-32.629262	17.193596	-0.209882	-101.477159
7.250000	-0.214604	-102.633081	-32.569985	17.065464	-32.569985	17.065464	-0.212865	-102.079713
7.300000	-0.217623	-103.238174	-32.510611	16.937088	-32.510611	16.937088	-0.215861	-102.681862
7.350000	-0.220708	-103.841245	-32.449167	16.807490	-32.449167	16.807490	-0.218924	-103.281988
7.400000	-0.223801	-104.444119	-32.387903	16.677666	-32.387903	16.677666	-0.221995	-103.881917
7.450000	-0.226969	-105.044827	-32.324315	16.545348	-32.324315	16.545348	-0.225139	-104.479677
7.500000	-0.230137	-105.645536	-32.261190	16.413031	-32.261190	16.413031	-0.228285	-105.077437
7.550000	-0.233388	-106.243945	-32.195501	16.276794	-32.195501	16.276794	-0.231512	-105.672894
7.600000	-0.236640	-106.842354	-32.130306	16.140558	-32.130306	16.140558	-0.234740	-106.268350
7.650000	-0.239968	-107.438717	-32.062828	15.999693	-32.062828	15.999693	-0.238045	-106.861754
7.700000	-0.243305	-108.034894	-31.995621	15.858408	-31.995621	15.858408	-0.241357	-107.454972
7.750000	-0.246713	-108.629266	-31.926427	15.712044	-31.926427	15.712044	-0.244740	-108.046378
7.800000	-0.250135	-109.223278	-31.857284	15.564664	-31.857284	15.564664	-0.248138	-108.637422
7.850000	-0.253623	-109.815717	-31.786458	15.411998	-31.786458	15.411998	-0.251601	-109.226886
7.900000	-0.257134	-110.407633	-31.715468	15.257571	-31.715468	15.257571	-0.255086	-109.815824
7.950000	-0.260703	-110.998198	-31.643102	15.097880	-31.643102	15.097880	-0.258629	-110.403403
8.000000	-0.264302	-111.588088	-31.570367	14.935557	-31.570367	14.935557	-0.262202	-110.990303
8.050000	-0.267953	-112.176838	-31.496561	14.768198	-31.496561	14.768198	-0.265827	-111.576056
8.100000	-0.271642	-112.764774	-31.422191	14.597242	-31.422191	14.597242	-0.269489	-112.160988
8.150000	-0.275377	-113.351770	-31.347051	14.421658	-31.347051	14.421658	-0.273197	-112.744973
8.200000	-0.279157	-113.937826	-31.271166	14.241447	-31.271166	14.241447	-0.276950	-113.328010
8.250000	-0.282976	-114.523130	-31.194802	14.057171	-31.194802	14.057171	-0.280741	-113.910287
8.300000	-0.286849	-115.107380	-31.117526	13.867202	-31.117526	13.867202	-0.284586	-114.491501
8.350000	-0.290753	-115.691054	-31.040050	13.673853	-31.040050	13.673853	-0.288462	-115.072133
8.400000	-0.294719	-116.273576	-30.961511	13.473743	-30.961511	13.473743	-0.292399	-115.651599
8.450000	-0.298710	-116.855685	-30.883037	13.271031	-30.883037	13.271031	-0.296361	-116.230646
8.500000	-0.302771	-117.436555	-30.803363	13.060513	-30.803363	13.060513	-0.300393	-116.808440
8.550000	-0.306849	-118.017164	-30.724003	12.848236	-30.724003	12.848236	-0.304441	-117.385967
8.600000	-0.311005	-118.596462	-30.643322	12.627157	-30.643322	12.627157	-0.308567	-117.962165
8.650000	-0.315171	-119.175637	-30.563186	12.405196	-30.563186	12.405196	-0.312703	-118.538237
8.700000	-0.319424	-119.753444	-30.481622	12.173514	-30.481622	12.173514	-0.316926	-119.112919
8.750000	-0.323679	-120.331251	-30.400818	11.941832	-30.400818	11.941832	-0.321150	-119.687601
8.800000	-0.328030	-120.907649	-30.318490	11.699605	-30.318490	11.699605	-0.325469	-120.260846
8.850000	-0.332383	-121.484047	-30.236936	11.457379	-30.236936	11.457379	-0.329791	-120.834092
8.900000	-0.336825	-122.059230	-30.154141	11.205627	-30.154141	11.205627	-0.334200	-121.406096
8.950000	-0.341277	-122.634303	-30.071948	10.953009	-30.071948	10.953009	-0.338620	-121.977987
9.000000	-0.345810	-123.208342	-29.988777	10.691931	-29.988777	10.691931	-0.343120	-122.548818
9.050000	-0.350361	-123.782174	-29.906048	10.429162	-29.906048	10.429162	-0.347638	-123.119437
9.100000	-0.354986	-124.355142	-29.822582	10.159016	-29.822582	10.159016	-0.352230	-123.689167
9.150000	-0.359638	-124.927820	-29.739411	9.886411	-29.739411	9.886411	-0.356848	-124.258599
9.200000	-0.364356	-125.499788	-29.655726	9.607505	-29.655726	9.607505	-0.361532	-124.827298
9.250000	-0.369109	-126.071401	-29.572196	9.325449	-29.572196	9.325449	-0.366250	-125.395630
9.300000	-0.373920	-126.642445	-29.488358	9.038137	-29.488358	9.038137	-0.371027	-125.963371
9.350000	-0.378775	-127.213082	-29.404541	8.747072	-29.404541	8.747072	-0.375846	-126.530690
9.400000	-0.383681	-127.783277	-29.320607	8.451746	-29.320607	8.451746	-0.380716	-127.097546
9.450000	-0.388638	-128.353030	-29.236565	8.152160	-29.236565	8.152160	-0.385637	-127.663941
9.500000	-0.393638	-128.922453	-29.152582	7.849245	-29.152582	7.849245	-0.390601	-128.229989
9.550000	-0.398698	-129.491414	-29.068365	7.541669	-29.068365	7.541669	-0.395624	-128.795551
9.600000	-0.403794	-130.060143	-28.984370	7.231615	-28.984370	7.231615	-0.400683	-129.360865
9.650000	-0.408957	-130.628407	-28.900015	6.916606	-28.900015	6.916606	-0.405809	-129.925686
9.700000	-0.414148	-131.196521	-28.816037	6.599884	-28.816037	6.599884	-0.410962	-130.490346
9.750000	-0.419416	-131.764185	-28.731570	6.278023	-28.731570	6.278023	-0.416192	-131.054520
9.800000	-0.424703	-132.331765	-28.647629	5.955120	-28.647629	5.955120	-0.421440	-131.618603
9.850000	-0.430074	-132.898926	-28.563063	5.627002	-28.563063	5.627002	-0.426773	-132.182226
9.900000	-0.435458	-133.466054	-28.479168	5.298412	-28.479168	5.298412	-0.432117	-132.745812
9.950000	-0.440934	-134.032813	-28.394503	4.964637	-28.394503	4.964637	-0.437553	-133.308983
10.000000	-0.446414	-134.599571	-28.310656	4.630862	-28.310656	4.630862	-0.442993	-133.872154
