! freq	dB(S11)	phase(S11)	dB(S12)	phase(S12)	
!     	dB(S21)	phase(S21)	dB(S22)	phase(S22)	
!S-par simulation data
#  GHz  S  DB  R 50
0.000000	-0.000000	0.000000	-345.304286	0.000000	-345.304286	0.000000	-0.000000	0.000000
0.050000	-0.000104	-0.840509	-66.258234	89.045161	-66.258234	89.045161	-0.000104	-0.840214
0.100000	-0.000414	-1.680768	-60.245783	88.102944	-60.245783	88.102944	-0.000413	-1.680178
0.150000	-0.000916	-2.520545	-56.735983	87.181879	-56.735983	87.181879	-0.000915	-2.519660
0.200000	-0.001591	-3.359646	-54.251454	86.284745	-54.251454	86.284745	-0.001591	-3.358467
0.250000	-0.002428	-4.197850	-52.328883	85.411583	-52.328883	85.411583	-0.002427	-4.196377
0.300000	-0.003388	-5.035113	-50.760653	84.556445	-50.760653	84.556445	-0.003386	-5.033346
0.350000	-0.004453	-5.871314	-49.436754	83.716004	-49.436754	83.716004	-0.004451	-5.869254
0.400000	-0.005600	-6.706401	-48.291399	82.886277	-48.291399	82.886277	-0.005597	-6.704050
0.450000	-0.006807	-7.540353	-47.282270	82.064040	-47.282270	82.064040	-0.006804	-7.537711
0.500000	-0.008056	-8.373170	-46.380563	81.246878	-46.380563	81.246878	-0.008052	-8.370237
0.550000	-0.009330	-9.204867	-45.565798	80.433082	-45.565798	80.433082	-0.009326	-9.201645
0.600000	-0.010617	-10.035472	-44.822896	79.621494	-44.822896	79.621494	-0.010612	-10.031961
0.650000	-0.011908	-10.865016	-44.140433	78.811359	-44.140433	78.811359	-0.011902	-10.861217
0.700000	-0.013193	-11.693529	-43.509541	78.002207	-43.509541	78.002207	-0.013187	-11.689443
0.750000	-0.014469	-12.521043	-42.923200	77.193770	-42.923200	77.193770	-0.014463	-12.516671
0.800000	-0.015732	-13.347583	-42.375751	76.385910	-42.375751	76.385910	-0.015725	-13.342926
0.850000	-0.016980	-14.173171	-41.862569	75.578582	-41.862569	75.578582	-0.016972	-14.168229
0.900000	-0.018211	-14.997822	-41.379820	74.771799	-41.379820	74.771799	-0.018203	-14.992597
0.950000	-0.019426	-15.821547	-40.924294	73.965614	-40.924294	73.965614	-0.019417	-15.816039
1.000000	-0.020625	-16.644352	-40.493271	73.160104	-40.493271	73.160104	-0.020616	-16.638561
1.050000	-0.021809	-17.466235	-40.084429	72.355359	-40.084429	72.355359	-0.021799	-17.460164
1.100000	-0.022978	-18.287195	-39.695769	71.551482	-39.695769	71.551482	-0.022968	-18.280843
1.150000	-0.024135	-19.107223	-39.325557	70.748576	-39.325557	70.748576	-0.024124	-19.100592
1.200000	-0.025280	-19.926309	-38.972278	69.946747	-38.972278	69.946747	-0.025269	-19.919399
1.250000	-0.026415	-20.744439	-38.634602	69.146104	-38.634602	69.146104	-0.026403	-20.737252
1.300000	-0.027540	-21.561555	-38.311436	68.346811	-38.311436	68.346811	-0.027528	-21.554092
1.350000	-0.028658	-22.377681	-38.001655	67.548920	-38.001655	67.548920	-0.028646	-22.369943
1.400000	-0.029769	-23.192798	-37.704328	66.752532	-37.704328	66.752532	-0.029756	-23.184786
1.450000	-0.030874	-24.006886	-37.418623	65.957745	-37.418623	65.957745	-0.030861	-23.998600
1.500000	-0.031975	-24.819924	-37.143790	65.164655	-37.143790	65.164655	-0.031961	-24.811366
1.550000	-0.033072	-25.631890	-36.879151	64.373354	-36.879151	64.373354	-0.033058	-25.623062
1.600000	-0.034165	-26.442763	-36.624094	63.583932	-36.624094	63.583932	-0.034151	-26.433666
1.650000	-0.035257	-27.252522	-36.378060	62.796478	-36.378060	62.796478	-0.035242	-27.243156
1.700000	-0.036346	-28.060736	-36.141163	62.011831	-36.141163	62.011831	-0.036331	-28.051104
1.750000	-0.037434	-28.868350	-35.911451	61.228285	-35.911451	61.228285	-0.037419	-28.858452
1.800000	-0.038522	-29.674515	-35.689764	60.447479	-35.689764	60.447479	-0.038506	-29.664352
1.850000	-0.039610	-30.479644	-35.475063	59.668629	-35.475063	59.668629	-0.039593	-30.469218
1.900000	-0.040697	-31.283484	-35.267322	58.892298	-35.267322	58.892298	-0.040681	-31.272796
1.950000	-0.041786	-32.086034	-35.066176	58.118484	-35.066176	58.118484	-0.041769	-32.075086
2.000000	-0.042875	-32.887472	-34.871047	57.346903	-34.871047	57.346903	-0.042858	-32.876264
2.050000	-0.043965	-33.687352	-34.682211	56.578448	-34.682211	56.578448	-0.043948	-33.675886
2.100000	-0.045057	-34.486545	-34.498254	55.811396	-34.498254	55.811396	-0.045039	-34.474823
2.150000	-0.046150	-35.283958	-34.320299	55.048001	-34.320299	55.048001	-0.046132	-35.271981
2.200000	-0.047246	-36.080023	-34.147534	54.287411	-34.147534	54.287411	-0.047228	-36.067793
2.250000	-0.048345	-36.874721	-33.979739	53.529692	-33.979739	53.529692	-0.048326	-36.862239
2.300000	-0.049446	-37.668033	-33.816711	52.774910	-33.816711	52.774910	-0.049426	-37.655301
2.350000	-0.050550	-38.459942	-33.658258	52.023127	-33.658258	52.023127	-0.050530	-38.446961
2.400000	-0.051657	-39.250429	-33.504200	51.274408	-33.504200	51.274408	-0.051637	-39.237201
2.450000	-0.052768	-40.039478	-33.354367	50.528812	-33.354367	50.528812	-0.052747	-40.026003
2.500000	-0.053882	-40.827071	-33.208599	49.786400	-33.208599	49.786400	-0.053862	-40.813352
2.550000	-0.055001	-41.613127	-33.066811	49.047375	-33.066811	49.047375	-0.054980	-41.599167
2.600000	-0.056124	-42.397695	-32.928793	48.311655	-32.928793	48.311655	-0.056103	-42.383494
2.650000	-0.057252	-43.180758	-32.794408	47.579297	-32.794408	47.579297	-0.057230	-43.166318
2.700000	-0.058385	-43.962303	-32.663528	46.850355	-32.663528	46.850355	-0.058363	-43.947625
2.750000	-0.059523	-44.742313	-32.536031	46.124885	-32.536031	46.124885	-0.059500	-44.727399
2.800000	-0.060666	-45.520777	-32.411801	45.402938	-32.411801	45.402938	-0.060643	-45.505629
2.850000	-0.061815	-46.297679	-32.290726	44.684568	-32.290726	44.684568	-0.061792	-46.282299
2.900000	-0.062971	-47.073008	-32.172701	43.969823	-32.172701	43.969823	-0.062947	-47.057397
2.950000	-0.064132	-47.846751	-32.057626	43.258755	-32.057626	43.258755	-0.064109	-47.830910
3.000000	-0.065301	-48.618895	-31.945403	42.551411	-31.945403	42.551411	-0.065277	-48.602827
3.050000	-0.066477	-49.389430	-31.835941	41.847839	-31.835941	41.847839	-0.066452	-49.373136
3.100000	-0.067660	-50.158344	-31.729152	41.148086	-31.729152	41.148086	-0.067635	-50.141826
3.150000	-0.068851	-50.925627	-31.624950	40.452196	-31.624950	40.452196	-0.068826	-50.908887
3.200000	-0.070050	-51.691268	-31.523254	39.760214	-31.523254	39.760214	-0.070025	-51.674308
3.250000	-0.071257	-52.455258	-31.423987	39.072183	-31.423987	39.072183	-0.071232	-52.438079
3.300000	-0.072474	-53.217588	-31.327072	38.388145	-31.327072	38.388145	-0.072448	-53.200191
3.350000	-0.073701	-53.977956	-31.232646	37.708855	-31.232646	37.708855	-0.073675	-53.960345
3.400000	-0.074938	-54.736574	-31.140478	37.033816	-31.140478	37.033816	-0.074912	-54.718749
3.450000	-0.076181	-55.494309	-31.049884	36.360939	-31.049884	36.360939	-0.076154	-55.476272
3.500000	-0.077439	-56.249399	-30.962028	35.694543	-30.962028	35.694543	-0.077412	-56.231152
3.550000	-0.078702	-57.003895	-30.875441	35.029614	-30.875441	35.029614	-0.078674	-56.985439
3.600000	-0.079983	-57.755426	-30.791637	34.372020	-30.791637	34.372020	-0.079956	-57.736765
3.650000	-0.081267	-58.506659	-30.708820	33.715171	-30.708820	33.715171	-0.081239	-58.487792
3.700000	-0.082573	-59.254608	-30.628824	33.066525	-30.628824	33.066525	-0.082545	-59.235539
3.750000	-0.083880	-60.002557	-30.549558	32.417879	-30.549558	32.417879	-0.083851	-59.983285
3.800000	-0.085212	-60.746902	-30.473139	31.778318	-30.473139	31.778318	-0.085183	-60.727432
3.850000	-0.086545	-61.491248	-30.397388	31.138757	-30.397388	31.138757	-0.086516	-61.471578
3.900000	-0.087904	-62.232274	-30.324158	30.507641	-30.324158	30.507641	-0.087874	-62.212409
3.950000	-0.089265	-62.972999	-30.251709	29.877292	-30.251709	29.877292	-0.089235	-62.952939
4.000000	-0.090651	-63.710696	-30.181477	29.254716	-30.181477	29.254716	-0.090620	-63.690444
4.050000	-0.092042	-64.447787	-30.112130	28.633694	-30.112130	28.633694	-0.092011	-64.427344
4.100000	-0.093456	-65.182147	-30.044716	28.019746	-30.044716	28.019746	-0.093425	-65.161515
4.150000	-0.094879	-65.915597	-29.978279	27.408156	-29.978279	27.408156	-0.094848	-65.894777
4.200000	-0.096324	-66.646615	-29.913510	26.802915	-29.913510	26.802915	-0.096292	-66.625610
4.250000	-0.097780	-67.376418	-29.849800	26.200849	-29.849800	26.200849	-0.097748	-67.355228
4.300000	-0.099257	-68.104093	-29.787514	25.604386	-29.787514	25.604386	-0.099225	-68.082721
4.350000	-0.100748	-68.830248	-29.726353	25.011924	-29.726353	25.011924	-0.100716	-68.808695
4.400000	-0.102258	-69.554581	-29.666393	24.424298	-29.666393	24.424298	-0.102226	-69.532849
4.450000	-0.103787	-70.277092	-29.607613	23.841509	-29.607613	23.841509	-0.103754	-70.255183
4.500000	-0.105332	-70.998087	-29.549830	23.262772	-29.549830	23.262772	-0.105298	-70.976002
4.550000	-0.106899	-71.716960	-29.493267	22.689709	-29.493267	22.689709	-0.106865	-71.694701
4.600000	-0.108481	-72.434625	-29.437517	22.119902	-29.437517	22.119902	-0.108446	-72.412192
4.650000	-0.110089	-73.149871	-29.383012	21.556607	-29.383012	21.556607	-0.110054	-73.127268
4.700000	-0.111708	-73.864213	-29.329157	20.995760	-29.329157	20.995760	-0.111673	-73.841441
4.750000	-0.113358	-74.575847	-29.276557	20.442258	-29.276557	20.442258	-0.113323	-74.552907
4.800000	-0.115017	-75.286881	-29.224463	19.890390	-29.224463	19.890390	-0.114981	-75.263774
4.850000	-0.116712	-75.994919	-29.173619	19.346693	-29.173619	19.346693	-0.116676	-75.971649
4.900000	-0.118411	-76.702659	-29.123156	18.803812	-29.123156	18.803812	-0.118375	-76.679225
4.950000	-0.120152	-77.407123	-29.073922	18.269913	-29.073922	18.269913	-0.120115	-77.383529
5.000000	-0.121894	-78.111587	-29.024966	17.736014	-29.024966	17.736014	-0.121857	-78.087832
5.050000	-0.123683	-78.812502	-28.977201	17.211890	-28.977201	17.211890	-0.123645	-78.788590
5.100000	-0.125472	-79.513417	-28.929697	16.687767	-28.929697	16.687767	-0.125434	-79.489347
5.150000	-0.127307	-80.211104	-28.883194	16.172566	-28.883194	16.172566	-0.127269	-80.186880
5.200000	-0.129146	-80.908498	-28.837006	15.658177	-28.837006	15.658177	-0.129108	-80.884119
5.250000	-0.131028	-81.602983	-28.791648	15.151848	-28.791648	15.151848	-0.130989	-81.578453
5.300000	-0.132919	-82.296887	-28.746642	14.647131	-28.746642	14.647131	-0.132880	-82.272205
5.350000	-0.134849	-82.988199	-28.702314	14.149608	-28.702314	14.149608	-0.134810	-82.963369
5.400000	-0.136793	-83.678647	-28.658359	13.654482	-28.658359	13.654482	-0.136754	-83.653669
5.450000	-0.138774	-84.366817	-28.614950	13.165680	-28.614950	13.165680	-0.138734	-84.341692
5.500000	-0.140773	-85.053847	-28.571917	12.680041	-28.571917	12.680041	-0.140733	-85.028577
5.550000	-0.142806	-85.738907	-28.529317	12.199862	-28.529317	12.199862	-0.142765	-85.713494
5.600000	-0.144862	-86.422560	-28.487082	11.723582	-28.487082	11.723582	-0.144820	-86.397004
5.650000	-0.146947	-87.104545	-28.445185	11.251906	-28.445185	11.251906	-0.146905	-87.078849
5.700000	-0.149062	-87.784864	-28.403622	10.784833	-28.403622	10.784833	-0.149020	-87.759028
5.750000	-0.151202	-88.463813	-28.362324	10.321522	-28.362324	10.321522	-0.151159	-88.437838
5.800000	-0.153377	-89.140844	-28.321313	9.863478	-28.321313	9.863478	-0.153334	-89.114732
5.850000	-0.155573	-89.816795	-28.280512	9.408375	-28.280512	9.408375	-0.155530	-89.790548
5.900000	-0.157811	-90.490587	-28.239934	8.959153	-28.239934	8.959153	-0.157767	-90.464206
5.950000	-0.160064	-91.163582	-28.199531	8.512079	-28.199531	8.512079	-0.160020	-91.137068
6.000000	-0.162366	-91.834187	-28.159270	8.071446	-28.159270	8.071446	-0.162321	-91.807541
6.050000	-0.164678	-92.504270	-28.119168	7.632200	-28.119168	7.632200	-0.164634	-92.477493
6.100000	-0.167045	-93.171742	-28.079112	7.199892	-28.079112	7.199892	-0.167000	-93.144836
6.150000	-0.169419	-93.838957	-28.039217	6.768252	-28.039217	6.768252	-0.169373	-93.811923
6.200000	-0.171853	-94.503353	-27.999255	6.343973	-27.999255	6.343973	-0.171807	-94.476193
6.250000	-0.174288	-95.167749	-27.959476	5.919694	-27.959476	5.919694	-0.174242	-95.140462
6.300000	-0.176792	-95.829128	-27.919501	5.503119	-27.919501	5.503119	-0.176745	-95.801717
6.350000	-0.179296	-96.490507	-27.879710	5.086544	-27.879710	5.086544	-0.179249	-96.462973
6.400000	-0.181864	-97.149178	-27.839659	4.676703	-27.839659	4.676703	-0.181817	-97.121521
6.450000	-0.184440	-97.807602	-27.799753	4.267475	-27.799753	4.267475	-0.184391	-97.779823
6.500000	-0.187075	-98.463616	-27.759545	3.864044	-27.759545	3.864044	-0.187026	-98.435718
6.550000	-0.189722	-99.119149	-27.719427	3.461772	-27.719427	3.461772	-0.189673	-99.091132
6.600000	-0.192425	-99.772563	-27.678983	3.064404	-27.678983	3.064404	-0.192376	-99.744428
6.650000	-0.195147	-100.425270	-27.638558	2.668669	-27.638558	2.668669	-0.195097	-100.397018
6.700000	-0.197920	-101.076140	-27.597804	2.276991	-27.597804	2.276991	-0.197869	-101.047772
6.750000	-0.200717	-101.726091	-27.556984	1.887342	-27.556984	1.887342	-0.200667	-101.697608
6.800000	-0.203560	-102.374475	-27.515851	1.500963	-27.515851	1.500963	-0.203509	-102.345878
6.850000	-0.206436	-103.021740	-27.474553	1.116919	-27.474553	1.116919	-0.206384	-102.993030
6.900000	-0.209351	-103.667698	-27.432975	0.735424	-27.432975	0.735424	-0.209299	-103.638876
6.950000	-0.212306	-104.312349	-27.391122	0.356478	-27.391122	0.356478	-0.212253	-104.283416
7.000000	-0.215294	-104.955943	-27.349039	-0.020566	-27.349039	-0.020566	-0.215241	-104.926899
7.050000	-0.218330	-105.598055	-27.306560	-0.394948	-27.306560	-0.394948	-0.218277	-105.568902
7.100000	-0.221393	-106.239346	-27.263917	-0.767993	-27.263917	-0.767993	-0.221340	-106.210085
7.150000	-0.224511	-106.878996	-27.220748	-1.138365	-27.220748	-1.138365	-0.224457	-106.849628
7.200000	-0.227651	-107.518050	-27.177496	-1.507877	-27.177496	-1.507877	-0.227597	-107.488575
7.250000	-0.230853	-108.155316	-27.133580	-1.874812	-27.133580	-1.874812	-0.230798	-108.125735
7.300000	-0.234071	-108.792198	-27.089677	-2.241273	-27.089677	-2.241273	-0.234015	-108.762512
7.350000	-0.237359	-109.427160	-27.044964	-2.605358	-27.044964	-2.605358	-0.237303	-109.397370
7.400000	-0.240655	-110.061938	-27.000371	-2.969256	-27.000371	-2.969256	-0.240599	-110.032044
7.450000	-0.244030	-110.694679	-26.954821	-3.331089	-26.954821	-3.331089	-0.243973	-110.664683
7.500000	-0.247406	-111.327421	-26.909509	-3.692922	-26.909509	-3.692922	-0.247349	-111.297322
7.550000	-0.250870	-111.958025	-26.863089	-4.053102	-26.863089	-4.053102	-0.250813	-111.927825
7.600000	-0.254335	-112.588629	-26.816916	-4.413283	-26.816916	-4.413283	-0.254278	-112.558329
7.650000	-0.257882	-113.217353	-26.769718	-4.772497	-26.769718	-4.772497	-0.257824	-113.186953
7.700000	-0.261438	-113.845906	-26.722660	-5.131624	-26.722660	-5.131624	-0.261379	-113.815407
7.750000	-0.265069	-114.472823	-26.674673	-5.490366	-26.674673	-5.490366	-0.265010	-114.442226
7.800000	-0.268717	-115.099413	-26.626715	-5.849031	-26.626715	-5.849031	-0.268657	-115.068718
7.850000	-0.272434	-115.724598	-26.577937	-6.207782	-26.577937	-6.207782	-0.272374	-115.693805
7.900000	-0.276174	-116.349314	-26.529071	-6.566562	-26.529071	-6.566562	-0.276114	-116.318424
7.950000	-0.279978	-116.972841	-26.479503	-6.925790	-26.479503	-6.925790	-0.279917	-116.941856
8.000000	-0.283814	-117.595774	-26.429731	-7.285243	-26.429731	-7.285243	-0.283753	-117.564694
8.050000	-0.287705	-118.217722	-26.379382	-7.645396	-26.379382	-7.645396	-0.287644	-118.186546
8.100000	-0.291637	-118.838965	-26.328712	-8.006051	-26.328712	-8.006051	-0.291575	-118.807696
8.150000	-0.295618	-119.459412	-26.277596	-8.367557	-26.277596	-8.367557	-0.295556	-119.428048
8.200000	-0.299647	-120.079060	-26.226044	-8.729913	-26.226044	-8.729913	-0.299585	-120.047603
8.250000	-0.303718	-120.698085	-26.174180	-9.093169	-26.174180	-9.093169	-0.303655	-120.666535
8.300000	-0.307847	-121.316235	-26.121768	-9.457687	-26.121768	-9.457687	-0.307784	-121.284593
8.350000	-0.312009	-121.933918	-26.069180	-9.823064	-26.069180	-9.823064	-0.311946	-121.902184
8.400000	-0.316238	-122.550668	-26.015936	-10.190160	-26.015936	-10.190160	-0.316174	-122.518843
8.450000	-0.320493	-123.167093	-25.962653	-10.557993	-25.962653	-10.557993	-0.320429	-123.135177
8.500000	-0.324823	-123.782543	-25.908609	-10.928038	-25.908609	-10.928038	-0.324759	-123.750536
8.550000	-0.329172	-124.397793	-25.854661	-11.298627	-25.854661	-11.298627	-0.329107	-124.365696
8.600000	-0.333605	-125.012044	-25.799856	-11.671940	-25.799856	-11.671940	-0.333540	-124.979858
8.650000	-0.338049	-125.626204	-25.745277	-12.045547	-25.745277	-12.045547	-0.337983	-125.593928
8.700000	-0.342586	-126.239361	-25.689751	-12.422394	-25.689751	-12.422394	-0.342520	-126.206996
8.750000	-0.347125	-126.852517	-25.634577	-12.799241	-25.634577	-12.799241	-0.347059	-126.820063
8.800000	-0.351767	-127.464684	-25.578370	-13.179833	-25.578370	-13.179833	-0.351701	-127.432142
8.850000	-0.356412	-128.076851	-25.522525	-13.560424	-25.522525	-13.560424	-0.356345	-128.044220
8.900000	-0.361152	-128.688209	-25.465794	-13.944591	-25.465794	-13.944591	-0.361084	-128.655491
8.950000	-0.365902	-129.299493	-25.409320	-14.329083	-25.409320	-14.329083	-0.365835	-129.266688
9.000000	-0.370741	-129.910133	-25.352103	-14.716908	-25.352103	-14.716908	-0.370673	-129.877240
9.050000	-0.375599	-130.520644	-25.295041	-15.105400	-25.295041	-15.105400	-0.375531	-130.487664
9.100000	-0.380537	-131.130658	-25.237375	-15.496926	-25.237375	-15.496926	-0.380469	-131.097592
9.150000	-0.385504	-131.740507	-25.179765	-15.889463	-25.179765	-15.889463	-0.385435	-131.707354
9.200000	-0.390542	-132.349989	-25.121683	-16.284694	-25.121683	-16.284694	-0.390474	-132.316750
9.250000	-0.395618	-132.959288	-25.063564	-16.681272	-25.063564	-16.681272	-0.395549	-132.925963
9.300000	-0.400758	-133.568334	-25.005098	-17.080174	-25.005098	-17.080174	-0.400689	-133.534923
9.350000	-0.405944	-134.177199	-24.946502	-17.480738	-24.946502	-17.480738	-0.405874	-134.143702
9.400000	-0.411185	-134.785904	-24.887680	-17.883245	-24.887680	-17.883245	-0.411116	-134.752322
9.450000	-0.416482	-135.394451	-24.828638	-18.287696	-24.828638	-18.287696	-0.416412	-135.360783
9.500000	-0.421826	-136.002915	-24.769484	-18.693708	-24.769484	-18.693708	-0.421756	-135.969162
9.550000	-0.427234	-136.611264	-24.710019	-19.101906	-24.710019	-19.101906	-0.427164	-136.577425
9.600000	-0.432681	-137.219586	-24.650553	-19.511296	-24.650553	-19.511296	-0.432611	-137.185662
9.650000	-0.438202	-137.827857	-24.590684	-19.923068	-24.590684	-19.923068	-0.438132	-137.793847
9.700000	-0.443753	-138.436139	-24.530921	-20.335682	-24.530921	-20.335682	-0.443682	-138.402045
9.750000	-0.449386	-139.044456	-24.470659	-20.750824	-24.470659	-20.750824	-0.449315	-139.010276
9.800000	-0.455041	-139.652801	-24.410609	-21.166488	-24.410609	-21.166488	-0.454970	-139.618536
9.850000	-0.460788	-140.261289	-24.349958	-21.584771	-24.349958	-21.584771	-0.460717	-140.226940
9.900000	-0.466547	-140.869803	-24.289625	-22.003294	-24.289625	-22.003294	-0.466476	-140.835368
9.950000	-0.472408	-141.478590	-24.228583	-22.424470	-24.228583	-22.424470	-0.472336	-141.444071
10.000000	-0.478272	-142.087378	-24.167966	-22.845646	-24.167966	-22.845646	-0.478200	-142.052773
