! freq	dB(S11)	phase(S11)	dB(S12)	phase(S12)	
!     	dB(S21)	phase(S21)	dB(S22)	phase(S22)	
!S-par simulation data
#  GHz  S  DB  R 50
0.000000	-0.000000	0.000000	-284.651153	0.000000	-284.651153	0.000000	0.000000	0.000000
0.050000	-0.000103	-0.825241	-68.359004	88.626532	-68.359004	88.626532	-0.000107	-0.877927
0.100000	-0.000408	-1.650234	-62.393715	87.469609	-62.393715	87.469609	-0.000425	-1.755598
0.150000	-0.000903	-2.474751	-58.927138	86.524055	-58.927138	86.524055	-0.000941	-2.632773
0.200000	-0.001569	-3.298599	-56.472198	85.694064	-56.472198	85.694064	-0.001636	-3.509252
0.250000	-0.002393	-4.121563	-54.567173	84.912813	-54.567173	84.912813	-0.002499	-4.384804
0.300000	-0.003337	-4.943599	-53.008514	84.142713	-53.008514	84.142713	-0.003489	-5.259379
0.350000	-0.004384	-5.764592	-51.689403	83.372159	-51.689403	83.372159	-0.004590	-6.132848
0.400000	-0.005511	-6.584492	-50.546155	82.596145	-50.546155	82.596145	-0.005777	-7.005151
0.450000	-0.006695	-7.403280	-49.537735	81.813550	-49.537735	81.813550	-0.007028	-7.876260
0.500000	-0.007920	-8.220960	-48.636094	81.024739	-48.636094	81.024739	-0.008325	-8.746169
0.550000	-0.009168	-9.037549	-47.821182	80.230566	-47.821182	80.230566	-0.009649	-9.614889
0.600000	-0.010427	-9.853075	-47.078157	79.431974	-47.078157	79.431974	-0.010987	-10.482443
0.650000	-0.011689	-10.667571	-46.395723	78.629845	-46.395723	78.629845	-0.012330	-11.348859
0.700000	-0.012945	-11.481070	-45.765075	77.824958	-45.765075	77.824958	-0.013668	-12.214167
0.750000	-0.014191	-12.293603	-45.179220	77.017984	-45.179220	77.017984	-0.014997	-13.078396
0.800000	-0.015423	-13.105196	-44.632510	76.209496	-44.632510	76.209496	-0.016311	-13.941570
0.850000	-0.016639	-13.915871	-44.120317	75.399984	-44.120317	75.399984	-0.017609	-14.803711
0.900000	-0.017839	-14.725644	-43.638801	74.589868	-43.638801	74.589868	-0.018889	-15.664832
0.950000	-0.019022	-15.534527	-43.184740	73.779512	-43.184740	73.779512	-0.020151	-16.524946
1.000000	-0.020190	-16.342525	-42.755405	72.969236	-42.755405	72.969236	-0.021396	-17.384056
1.050000	-0.021341	-17.149639	-42.348466	72.159319	-42.348466	72.159319	-0.022623	-18.242162
1.100000	-0.022479	-17.955866	-41.961912	71.350010	-41.961912	71.350010	-0.023834	-19.099260
1.150000	-0.023603	-18.761200	-41.594001	70.541535	-41.594001	70.541535	-0.025031	-19.955341
1.200000	-0.024716	-19.565629	-41.243212	69.734097	-41.243212	69.734097	-0.026214	-20.810394
1.250000	-0.025819	-20.369143	-40.908207	68.927881	-40.908207	68.927881	-0.027384	-21.664404
1.300000	-0.026911	-21.171685	-40.587903	68.123128	-40.587903	68.123128	-0.028544	-22.517308
1.350000	-0.027996	-21.973278	-40.281154	67.319942	-40.281154	67.319942	-0.029694	-23.369132
1.400000	-0.029074	-22.773904	-39.987025	66.518472	-39.987025	66.518472	-0.030836	-24.219855
1.450000	-0.030146	-23.573544	-39.704678	65.718857	-39.704678	65.718857	-0.031971	-25.069456
1.500000	-0.031213	-24.372178	-39.433360	64.921229	-39.433360	64.921229	-0.033100	-25.917912
1.550000	-0.032276	-25.169786	-39.172391	64.125715	-39.172391	64.125715	-0.034224	-26.765201
1.600000	-0.033335	-25.966348	-38.921154	63.332435	-38.921154	63.332435	-0.035343	-27.611298
1.650000	-0.034392	-26.761841	-38.679089	62.541507	-38.679089	62.541507	-0.036459	-28.456179
1.700000	-0.035446	-27.556245	-38.445685	61.753041	-38.445685	61.753041	-0.037573	-29.299822
1.750000	-0.036499	-28.349539	-38.220475	60.967147	-38.220475	60.967147	-0.038684	-30.142202
1.800000	-0.037551	-29.141702	-38.003030	60.183929	-38.003030	60.183929	-0.039794	-30.983295
1.850000	-0.038602	-29.932712	-37.792956	59.403491	-37.792956	59.403491	-0.040902	-31.823078
1.900000	-0.039653	-30.722549	-37.589890	58.625931	-37.589890	58.625931	-0.042011	-32.661527
1.950000	-0.040704	-31.511193	-37.393495	57.851349	-37.393495	57.851349	-0.043119	-33.498620
2.000000	-0.041756	-32.298623	-37.203460	57.079839	-37.203460	57.079839	-0.044227	-34.334333
2.050000	-0.042808	-33.084819	-37.019497	56.311494	-37.019497	56.311494	-0.045337	-35.168645
2.100000	-0.043862	-33.869762	-36.841337	55.546407	-36.841337	55.546407	-0.046447	-36.001534
2.150000	-0.044917	-34.653433	-36.668728	54.784668	-36.668728	54.784668	-0.047560	-36.832979
2.200000	-0.045974	-35.435813	-36.501437	54.026365	-36.501437	54.026365	-0.048674	-37.662959
2.250000	-0.047033	-36.216883	-36.339244	53.271586	-36.339244	53.271586	-0.049790	-38.491453
2.300000	-0.048094	-36.996626	-36.181945	52.520417	-36.181945	52.520417	-0.050908	-39.318442
2.350000	-0.049158	-37.775023	-36.029346	51.772942	-36.029346	51.772942	-0.052030	-40.143907
2.400000	-0.050225	-38.552059	-35.881265	51.029244	-35.881265	51.029244	-0.053154	-40.967829
2.450000	-0.051295	-39.327715	-35.737531	50.289407	-35.737531	50.289407	-0.054282	-41.790190
2.500000	-0.052369	-40.101976	-35.597983	49.553511	-35.597983	49.553511	-0.055414	-42.610972
2.550000	-0.053446	-40.874764	-35.462548	48.821814	-35.462548	48.821814	-0.056550	-43.430088
2.600000	-0.054528	-41.646124	-35.330999	48.094224	-35.330999	48.094224	-0.057690	-44.247590
2.650000	-0.055614	-42.416041	-35.203200	47.370820	-35.203200	47.370820	-0.058835	-45.063463
2.700000	-0.056705	-43.184500	-35.079019	46.651677	-35.079019	46.651677	-0.059985	-45.877691
2.750000	-0.057800	-43.951488	-34.958332	45.936871	-34.958332	45.936871	-0.061141	-46.690260
2.800000	-0.058901	-44.716990	-34.841023	45.226478	-34.841023	45.226478	-0.062302	-47.501155
2.850000	-0.060008	-45.480993	-34.726977	44.520571	-34.726977	44.520571	-0.063469	-48.310363
2.900000	-0.061120	-46.243486	-34.616089	43.819223	-34.616089	43.819223	-0.064643	-49.117870
2.950000	-0.062239	-47.004454	-34.508253	43.122505	-34.508253	43.122505	-0.065823	-49.923665
3.000000	-0.063364	-47.763887	-34.403373	42.430488	-34.403373	42.430488	-0.067010	-50.727735
3.050000	-0.064496	-48.521773	-34.301354	41.743243	-34.301354	41.743243	-0.068205	-51.530068
3.100000	-0.065635	-49.278100	-34.202105	41.060838	-34.202105	41.060838	-0.069408	-52.330654
3.150000	-0.066783	-50.032858	-34.105539	40.383341	-34.105539	40.383341	-0.070618	-53.129483
3.200000	-0.067938	-50.786038	-34.011572	39.710819	-34.011572	39.710819	-0.071838	-53.926545
3.250000	-0.069101	-51.537628	-33.920123	39.043338	-33.920123	39.043338	-0.073066	-54.721830
3.300000	-0.070273	-52.287620	-33.831115	38.380962	-33.831115	38.380962	-0.074304	-55.515330
3.350000	-0.071456	-53.035722	-33.744723	37.724673	-33.744723	37.724673	-0.075553	-56.306723
3.400000	-0.072649	-53.782139	-33.660681	37.073846	-33.660681	37.073846	-0.076813	-57.096237
3.450000	-0.073847	-54.527705	-33.578176	36.425804	-33.578176	36.425804	-0.078079	-57.884804
3.500000	-0.075060	-55.270721	-33.498618	35.786121	-33.498618	35.786121	-0.079362	-58.670534
3.550000	-0.076278	-56.013165	-33.420251	35.148339	-33.420251	35.148339	-0.080649	-59.455630
3.600000	-0.077515	-56.752748	-33.344903	34.520058	-33.344903	34.520058	-0.081956	-60.237551
3.650000	-0.078753	-57.492044	-33.270427	33.892748	-33.270427	33.892748	-0.083265	-61.019153
3.700000	-0.080014	-58.228169	-33.199028	33.276115	-33.199028	33.276115	-0.084599	-61.797245
3.750000	-0.081276	-58.964295	-33.128211	32.659482	-33.128211	32.659482	-0.085933	-62.575336
3.800000	-0.082563	-59.696939	-33.060514	32.054732	-33.060514	32.054732	-0.087294	-63.349583
3.850000	-0.083850	-60.429582	-32.993339	31.449982	-32.993339	31.449982	-0.088656	-64.123829
3.900000	-0.085163	-61.159017	-32.928902	30.856330	-32.928902	30.856330	-0.090046	-64.894541
3.950000	-0.086479	-61.888160	-32.865140	30.263685	-32.865140	30.263685	-0.091438	-65.664931
4.000000	-0.087819	-62.614373	-32.803758	29.681304	-32.803758	29.681304	-0.092856	-66.432102
4.050000	-0.089164	-63.340000	-32.743186	29.100975	-32.743186	29.100975	-0.094280	-67.198629
4.100000	-0.090533	-64.062981	-32.684662	28.530028	-32.684662	28.530028	-0.095730	-67.962258
4.150000	-0.091909	-64.785081	-32.627067	27.962209	-32.627067	27.962209	-0.097188	-68.724920
4.200000	-0.093308	-65.504823	-32.571211	27.402851	-32.571211	27.402851	-0.098670	-69.485007
4.250000	-0.094718	-66.223387	-32.516387	26.847722	-32.516387	26.847722	-0.100163	-70.243808
4.300000	-0.096148	-66.939886	-32.463017	26.300091	-32.463017	26.300091	-0.101679	-71.000359
4.350000	-0.097593	-67.654911	-32.410761	25.757815	-32.410761	25.757815	-0.103211	-71.755304
4.400000	-0.099056	-68.368165	-32.359701	25.222039	-32.359701	25.222039	-0.104762	-72.508327
4.450000	-0.100538	-69.079650	-32.309818	24.692761	-32.309818	24.692761	-0.106333	-73.259429
4.500000	-0.102036	-69.789661	-32.260898	24.168951	-32.260898	24.168951	-0.107921	-74.008935
4.550000	-0.103556	-70.497608	-32.213195	23.652797	-32.213195	23.652797	-0.109534	-74.756208
4.600000	-0.105090	-71.204379	-32.166248	23.141051	-32.166248	23.141051	-0.111161	-75.502212
4.650000	-0.106651	-71.908797	-32.120538	22.638122	-32.120538	22.638122	-0.112817	-76.245677
4.700000	-0.108222	-72.612334	-32.075401	22.138520	-32.075401	22.138520	-0.114485	-76.988196
4.750000	-0.109825	-73.313232	-32.031497	21.648896	-32.031497	21.648896	-0.116186	-77.727877
4.800000	-0.111435	-74.013545	-31.988013	21.161498	-31.988013	21.161498	-0.117895	-78.466931
4.850000	-0.113082	-74.710936	-31.945733	20.685232	-31.945733	20.685232	-0.119644	-79.202856
4.900000	-0.114733	-75.408036	-31.903745	20.210080	-31.903745	20.210080	-0.121397	-79.938470
4.950000	-0.116425	-76.101937	-31.862909	19.747195	-31.862909	19.747195	-0.123194	-80.670670
5.000000	-0.118118	-76.795838	-31.822263	19.284309	-31.822263	19.284309	-0.124992	-81.402870
5.050000	-0.119858	-77.486269	-31.782692	18.834797	-31.782692	18.834797	-0.126841	-82.131382
5.100000	-0.121598	-78.176700	-31.743300	18.385284	-31.743300	18.385284	-0.128689	-82.859893
5.150000	-0.123383	-78.863972	-31.704755	17.947991	-31.704755	17.947991	-0.130586	-83.585059
5.200000	-0.125173	-79.550957	-31.666441	17.511809	-31.666441	17.511809	-0.132488	-84.309921
5.250000	-0.127004	-80.235091	-31.628774	17.086668	-31.628774	17.086668	-0.134434	-85.031778
5.300000	-0.128845	-80.918656	-31.591365	16.663736	-31.591365	16.663736	-0.136391	-85.753034
5.350000	-0.130724	-81.599677	-31.554428	16.250650	-31.554428	16.250650	-0.138389	-86.471620
5.400000	-0.132617	-82.279850	-31.517751	15.840846	-31.517751	15.840846	-0.140401	-87.189316
5.450000	-0.134547	-82.957785	-31.481400	15.439685	-31.481400	15.439685	-0.142452	-87.904673
5.500000	-0.136494	-83.634600	-31.445285	15.042846	-31.445285	15.042846	-0.144523	-88.618859
5.550000	-0.138474	-84.309476	-31.409375	14.653444	-31.409375	14.653444	-0.146629	-89.331030
5.600000	-0.140478	-84.982968	-31.373654	14.269356	-31.373654	14.269356	-0.148759	-90.041760
5.650000	-0.142510	-85.654817	-31.338045	13.891513	-31.338045	13.891513	-0.150921	-90.750791
5.700000	-0.144572	-86.325022	-31.302550	13.519914	-31.302550	13.519914	-0.153113	-91.458122
5.750000	-0.146658	-86.993876	-31.267104	13.153387	-31.267104	13.153387	-0.155332	-92.164061
5.800000	-0.148779	-87.660837	-31.231670	12.793961	-31.231670	12.793961	-0.157588	-92.868052
5.850000	-0.150921	-88.326731	-31.196250	12.438469	-31.196250	12.438469	-0.159866	-93.570951
5.900000	-0.153103	-88.990491	-31.160716	12.090846	-31.160716	12.090846	-0.162187	-94.271665
5.950000	-0.155302	-89.653461	-31.125190	11.746065	-31.125190	11.746065	-0.164525	-94.971576
6.000000	-0.157547	-90.314065	-31.089398	11.409814	-31.089398	11.409814	-0.166913	-95.669079
6.050000	-0.159803	-90.974150	-31.053635	11.075378	-31.053635	11.075378	-0.169313	-96.366058
6.100000	-0.162113	-91.631646	-31.017432	10.750010	-31.017432	10.750010	-0.171769	-97.060419
6.150000	-0.164429	-92.288888	-30.981307	10.425505	-30.981307	10.425505	-0.174233	-97.754524
6.200000	-0.166805	-92.943327	-30.944543	10.110472	-30.944543	10.110472	-0.176759	-98.445814
6.250000	-0.169182	-93.597766	-30.907934	9.795439	-30.907934	9.795439	-0.179287	-99.137104
6.300000	-0.171626	-94.249202	-30.870467	9.490130	-30.870467	9.490130	-0.181886	-99.825398
6.350000	-0.174071	-94.900637	-30.833160	9.184822	-30.833160	9.184822	-0.184486	-100.513691
6.400000	-0.176579	-95.549370	-30.794951	8.887812	-30.794951	8.887812	-0.187152	-101.199309
6.450000	-0.179093	-96.197857	-30.756813	8.591557	-30.756813	8.591557	-0.189826	-101.884684
6.500000	-0.181666	-96.843935	-30.717757	8.302239	-30.717757	8.302239	-0.192561	-102.567692
6.550000	-0.184252	-97.489531	-30.678661	8.014309	-30.678661	8.014309	-0.195310	-103.250226
6.600000	-0.186892	-98.133003	-30.638662	7.732034	-30.638662	7.732034	-0.198116	-103.930693
6.650000	-0.189550	-98.775768	-30.598490	7.451644	-30.598490	7.451644	-0.200941	-104.610470
6.700000	-0.192258	-99.416687	-30.557459	7.175724	-30.557459	7.175724	-0.203819	-105.288465
6.750000	-0.194991	-100.056682	-30.516103	6.902039	-30.516103	6.902039	-0.206723	-105.965570
6.800000	-0.197768	-100.695099	-30.473961	6.631751	-30.473961	6.631751	-0.209674	-106.641166
6.850000	-0.200576	-101.332389	-30.431324	6.363888	-30.431324	6.363888	-0.212658	-107.315684
6.900000	-0.203424	-101.968358	-30.388000	6.098477	-30.388000	6.098477	-0.215683	-107.988954
6.950000	-0.206310	-102.603008	-30.343998	5.835515	-30.343998	5.835515	-0.218749	-108.660977
7.000000	-0.209230	-103.236586	-30.299431	5.574199	-30.299431	5.574199	-0.221849	-109.331997
7.050000	-0.212195	-103.868664	-30.253993	5.315185	-30.253993	5.315185	-0.224998	-110.001615
7.100000	-0.215188	-104.499907	-30.208131	5.057161	-30.208131	5.057161	-0.228176	-110.670462
7.150000	-0.218234	-105.129482	-30.161198	4.801117	-30.161198	4.801117	-0.231409	-111.337769
7.200000	-0.221301	-105.758449	-30.114004	4.545567	-30.114004	4.545567	-0.234665	-112.004523
7.250000	-0.224429	-106.385592	-30.065532	4.291503	-30.065532	4.291503	-0.237985	-112.669616
7.300000	-0.227572	-107.012343	-30.016976	4.037602	-30.016976	4.037602	-0.241320	-113.334356
7.350000	-0.230783	-107.637129	-29.966935	3.784522	-29.966935	3.784522	-0.244728	-113.997333
7.400000	-0.234003	-108.261724	-29.917000	3.531442	-29.917000	3.531442	-0.248144	-114.660142
7.450000	-0.237300	-108.884227	-29.865375	3.278361	-29.865375	3.278361	-0.251640	-115.321104
7.500000	-0.240598	-109.506729	-29.814055	3.025280	-29.814055	3.025280	-0.255138	-115.982067
7.550000	-0.243981	-110.127026	-29.760845	2.771230	-29.760845	2.771230	-0.258725	-116.641116
7.600000	-0.247366	-110.747322	-29.707959	2.517180	-29.707959	2.517180	-0.262314	-117.300166
7.650000	-0.250830	-111.365668	-29.653363	2.261383	-29.653363	2.261383	-0.265985	-117.957560
7.700000	-0.254302	-111.983836	-29.598925	2.005428	-29.598925	2.005428	-0.269666	-118.614802
7.750000	-0.257848	-112.600298	-29.542973	1.747137	-29.542973	1.747137	-0.273423	-119.270628
7.800000	-0.261410	-113.216418	-29.487010	1.488379	-29.487010	1.488379	-0.277196	-119.926170
7.850000	-0.265039	-113.831064	-29.429739	1.226887	-29.429739	1.226887	-0.281040	-120.580520
7.900000	-0.268691	-114.445218	-29.372291	0.964483	-29.372291	0.964483	-0.284909	-121.234471
7.950000	-0.272405	-115.058117	-29.313748	0.699125	-29.313748	0.699125	-0.288840	-121.887436
8.000000	-0.276149	-115.670389	-29.254867	0.432291	-29.254867	0.432291	-0.292805	-122.539908
8.050000	-0.279948	-116.281611	-29.195108	0.162457	-29.195108	0.162457	-0.296825	-123.191583
8.100000	-0.283786	-116.892085	-29.134854	-0.109521	-29.134854	-0.109521	-0.300887	-123.842688
8.150000	-0.287671	-117.501703	-29.073940	-0.384389	-29.073940	-0.384389	-0.304997	-124.493168
8.200000	-0.291603	-118.110466	-29.012384	-0.662148	-29.012384	-0.662148	-0.309157	-125.143023
8.250000	-0.295576	-118.718552	-28.950384	-0.942546	-28.950384	-0.942546	-0.313359	-125.792406
8.300000	-0.299604	-119.325692	-28.887603	-1.226641	-28.887603	-1.226641	-0.317618	-126.441127
8.350000	-0.303665	-119.932320	-28.824588	-1.513004	-28.824588	-1.513004	-0.321912	-127.089511
8.400000	-0.307790	-120.537927	-28.760666	-1.803904	-28.760666	-1.803904	-0.326272	-127.737219
8.450000	-0.311941	-121.143172	-28.696711	-2.096600	-28.696711	-2.096600	-0.330659	-128.384705
8.500000	-0.316164	-121.747337	-28.631734	-2.394685	-28.631734	-2.394685	-0.335121	-129.031522
8.550000	-0.320406	-122.351277	-28.566917	-2.694015	-28.566917	-2.694015	-0.339602	-129.678211
8.600000	-0.324728	-122.954093	-28.500975	-2.999575	-28.500975	-2.999575	-0.344167	-130.324260
8.650000	-0.329061	-123.556805	-28.435374	-3.305775	-28.435374	-3.305775	-0.348743	-130.970256
8.700000	-0.333483	-124.158367	-28.368557	-3.619013	-28.368557	-3.619013	-0.353412	-131.615665
8.750000	-0.337908	-124.759929	-28.302250	-3.932250	-28.302250	-3.932250	-0.358083	-132.261074
8.800000	-0.342432	-125.360333	-28.234645	-4.253281	-28.234645	-4.253281	-0.362857	-132.905970
8.850000	-0.346959	-125.960738	-28.167562	-4.574311	-28.167562	-4.574311	-0.367633	-133.550867
8.900000	-0.351577	-126.560171	-28.099400	-4.902516	-28.099400	-4.902516	-0.372504	-134.195413
8.950000	-0.356206	-127.159516	-28.031626	-5.231372	-28.031626	-5.231372	-0.377386	-134.839928
9.000000	-0.360918	-127.758061	-27.962979	-5.566712	-27.962979	-5.566712	-0.382355	-135.484237
9.050000	-0.365650	-128.356446	-27.894593	-5.903349	-27.894593	-5.903349	-0.387344	-136.128503
9.100000	-0.370459	-128.954187	-27.825527	-6.245735	-27.825527	-6.245735	-0.392412	-136.772686
9.150000	-0.375295	-129.551713	-27.756603	-6.590036	-27.756603	-6.590036	-0.397508	-137.416840
9.200000	-0.380200	-130.148736	-27.687177	-6.939325	-27.687177	-6.939325	-0.402675	-138.061011
9.250000	-0.385140	-130.745507	-27.617784	-7.291108	-27.617784	-7.291108	-0.407879	-138.705191
9.300000	-0.390142	-131.341899	-27.548053	-7.647116	-27.548053	-7.647116	-0.413146	-139.349467
9.350000	-0.395188	-131.938019	-27.478249	-8.006141	-27.478249	-8.006141	-0.418459	-139.993813
9.400000	-0.400287	-132.533868	-27.408260	-8.368643	-27.408260	-8.368643	-0.423826	-140.638313
9.450000	-0.405440	-133.129445	-27.338096	-8.734620	-27.338096	-8.734620	-0.429248	-141.282968
9.500000	-0.410637	-133.724841	-27.267891	-9.103356	-27.267891	-9.103356	-0.434717	-141.927813
9.550000	-0.415896	-134.319983	-27.197409	-9.475953	-27.197409	-9.475953	-0.440248	-142.572922
9.600000	-0.421192	-134.915016	-27.127018	-9.850635	-27.127018	-9.850635	-0.445818	-143.218233
9.650000	-0.426558	-135.509834	-27.056250	-10.229485	-27.056250	-10.229485	-0.451459	-143.863947
9.700000	-0.431952	-136.104598	-26.985700	-10.609801	-26.985700	-10.609801	-0.457130	-144.509848
9.750000	-0.437426	-136.699204	-26.914667	-10.994511	-26.914667	-10.994511	-0.462881	-145.156316
9.800000	-0.442920	-137.293793	-26.843975	-11.380130	-26.843975	-11.380130	-0.468654	-145.802936
9.850000	-0.448501	-137.888301	-26.772688	-11.770290	-26.772688	-11.770290	-0.474516	-146.450313
9.900000	-0.454095	-138.482811	-26.701863	-12.160868	-26.701863	-12.160868	-0.480390	-147.097778
9.950000	-0.459784	-139.077338	-26.630324	-12.556053	-26.630324	-12.556053	-0.486362	-147.746221
10.000000	-0.465477	-139.671865	-26.559368	-12.951238	-26.559368	-12.951238	-0.492338	-148.394663
