! freq	dB(S11)	phase(S11)	dB(S12)	phase(S12)	
!     	dB(S21)	phase(S21)	dB(S22)	phase(S22)	
!S-par simulation data
#  GHz  S  DB  R 50
0.000000	-88.984030	0.000000	-0.000309	0.000000	-0.000309	0.000000	-88.984030	0.000000
0.050000	-76.483044	75.396869	-0.000450	-0.900453	-0.000450	-0.900453	-76.485388	75.398723
0.100000	-70.626918	81.441134	-0.000867	-1.800553	-0.000867	-1.800553	-70.629377	81.450429
0.150000	-67.100616	83.007123	-0.001536	-2.699987	-0.001536	-2.699987	-67.103111	83.022658
0.200000	-64.558849	83.418704	-0.002419	-3.598518	-0.002419	-3.598518	-64.561371	83.440097
0.250000	-62.553093	83.342533	-0.003489	-4.495911	-0.003489	-4.495911	-62.555643	83.369558
0.300000	-60.886083	83.050740	-0.004685	-5.392184	-0.004685	-5.392184	-60.888662	83.083232
0.350000	-59.447855	82.623050	-0.005976	-6.287281	-0.005976	-6.287281	-59.450462	82.660846
0.400000	-58.173848	82.110865	-0.007324	-7.181248	-0.007324	-7.181248	-58.176483	82.153794
0.450000	-57.022530	81.542403	-0.008700	-8.074176	-0.008700	-8.074176	-57.025190	81.590286
0.500000	-55.965702	80.934341	-0.010078	-8.966180	-0.010078	-8.966180	-55.968384	80.986983
0.550000	-54.983426	80.297054	-0.011441	-9.857392	-0.011441	-9.857392	-54.986125	80.354247
0.600000	-54.061161	79.637237	-0.012777	-10.747943	-0.012777	-10.747943	-54.063871	79.698762
0.650000	-53.188035	78.959314	-0.014076	-11.637962	-0.014076	-11.637962	-53.190749	79.024938
0.700000	-52.355763	78.266253	-0.015335	-12.527570	-0.015335	-12.527570	-52.358475	78.335732
0.750000	-51.557935	77.560051	-0.016553	-13.416873	-0.016553	-13.416873	-51.560637	77.633135
0.800000	-50.789524	76.842055	-0.017729	-14.305967	-0.017729	-14.305967	-50.792209	76.918487
0.850000	-50.046555	76.113169	-0.018865	-15.194936	-0.018865	-15.194936	-50.049215	76.192687
0.900000	-49.325852	75.373991	-0.019965	-16.083853	-0.019965	-16.083853	-49.328481	75.456334
0.950000	-48.624865	74.624919	-0.021032	-16.972779	-0.021032	-16.972779	-48.627457	74.709824
1.000000	-47.941534	73.866217	-0.022069	-17.861769	-0.022069	-17.861769	-47.944083	73.953427
1.050000	-47.274184	73.098071	-0.023080	-18.750867	-0.023080	-18.750867	-47.276685	73.187332
1.100000	-46.621450	72.320624	-0.024069	-19.640114	-0.024069	-19.640114	-46.623899	72.411691
1.150000	-45.982211	71.534002	-0.025040	-20.529545	-0.025040	-20.529545	-45.984606	71.626637
1.200000	-45.355547	70.738335	-0.025995	-21.419190	-0.025995	-21.419190	-45.357885	70.832309
1.250000	-44.740695	69.933766	-0.026939	-22.309074	-0.026939	-22.309074	-44.742975	70.028863
1.300000	-44.135687	69.120092	-0.027873	-23.199235	-0.027873	-23.199235	-44.137908	69.216098
1.350000	-43.541405	68.297897	-0.028802	-24.089684	-0.028802	-24.089684	-43.543567	68.394622
1.400000	-42.957400	67.467409	-0.029727	-24.980439	-0.029727	-24.980439	-42.959504	67.564672
1.450000	-42.383287	66.628881	-0.030650	-25.871520	-0.030650	-25.871520	-42.385334	66.726517
1.500000	-41.818735	65.782594	-0.031576	-26.762944	-0.031576	-26.762944	-41.820726	65.880449
1.550000	-41.263454	64.928850	-0.032504	-27.654726	-0.032504	-27.654726	-41.265392	65.026783
1.600000	-40.717190	64.067970	-0.033437	-28.546883	-0.033437	-28.546883	-40.719077	64.165853
1.650000	-40.179712	63.200293	-0.034378	-29.439430	-0.034378	-29.439430	-40.181550	63.298006
1.700000	-39.650813	62.326166	-0.035327	-30.332382	-0.035327	-30.332382	-39.652605	62.423603
1.750000	-39.130301	61.445945	-0.036286	-31.225754	-0.036286	-31.225754	-39.132049	61.543010
1.800000	-38.617999	60.559990	-0.037258	-32.119560	-0.037258	-32.119560	-38.619706	60.656597
1.850000	-38.113738	59.668661	-0.038242	-33.013815	-0.038242	-33.013815	-38.115406	59.764732
1.900000	-37.617359	58.772317	-0.039242	-33.908534	-0.039242	-33.908534	-37.618990	58.867782
1.950000	-37.128707	57.871311	-0.040258	-34.803730	-0.040258	-34.803730	-37.130305	57.966109
2.000000	-36.647636	56.965986	-0.041291	-35.699419	-0.041291	-35.699419	-36.649203	57.060063
2.050000	-36.174001	56.056680	-0.042344	-36.595615	-0.042344	-36.595615	-36.175538	56.149987
2.100000	-35.707660	55.143715	-0.043417	-37.492332	-0.043417	-37.492332	-35.709169	55.236211
2.150000	-35.248476	54.227405	-0.044513	-38.389585	-0.044513	-38.389585	-35.249959	54.319053
2.200000	-34.796312	53.308046	-0.045631	-39.287389	-0.045631	-39.287389	-34.797771	53.398814
2.250000	-34.351034	52.385923	-0.046775	-40.185758	-0.046775	-40.185758	-34.352471	52.475783
2.300000	-33.912511	51.461303	-0.047946	-41.084707	-0.047946	-41.084707	-33.913926	51.550232
2.350000	-33.480612	50.534440	-0.049144	-41.984251	-0.049144	-41.984251	-33.482007	50.622417
2.400000	-33.055209	49.605570	-0.050372	-42.884405	-0.050372	-42.884405	-33.056585	49.692578
2.450000	-32.636175	48.674916	-0.051631	-43.785184	-0.051631	-43.785184	-32.637533	48.760940
2.500000	-32.223384	47.742684	-0.052923	-44.686602	-0.052923	-44.686602	-32.224725	47.827712
2.550000	-31.816158	46.809011	-0.054251	-45.588703	-0.054251	-45.588703	-31.817482	46.893033
2.600000	-31.414967	45.874141	-0.055616	-46.491474	-0.055616	-46.491474	-31.416276	45.957149
2.650000	-31.019690	44.938234	-0.057019	-47.394930	-0.057019	-47.394930	-31.020984	45.020220
2.700000	-30.630208	44.001434	-0.058463	-48.299085	-0.058463	-48.299085	-30.631486	44.082394
2.750000	-30.246401	43.063873	-0.059948	-49.203954	-0.059948	-49.203954	-30.247666	43.143804
2.800000	-29.868156	42.125671	-0.061478	-50.109552	-0.061478	-50.109552	-29.869407	42.204571
2.850000	-29.495359	41.186936	-0.063055	-51.015891	-0.063055	-51.015891	-29.496596	41.264801
2.900000	-29.127899	40.247761	-0.064680	-51.922988	-0.064680	-51.922988	-29.129122	40.324592
2.950000	-28.765667	39.308232	-0.066355	-52.830854	-0.066355	-52.830854	-28.766878	39.384029
3.000000	-28.408557	38.368423	-0.068084	-53.739505	-0.068084	-53.739505	-28.409756	38.443186
3.050000	-28.056467	37.428397	-0.069868	-54.648953	-0.069868	-54.648953	-28.057653	37.502128
3.100000	-27.709293	36.488210	-0.071710	-55.559211	-0.071710	-55.559211	-27.710467	36.560911
3.150000	-27.366938	35.547909	-0.073612	-56.470293	-0.073612	-56.470293	-27.368100	35.619582
3.200000	-27.029304	34.607532	-0.075577	-57.382212	-0.075577	-57.382212	-27.030455	34.678179
3.250000	-26.696299	33.667110	-0.077607	-58.294979	-0.077607	-58.294979	-26.697438	33.736734
3.300000	-26.367829	32.726668	-0.079706	-59.208607	-0.079706	-59.208607	-26.368957	32.795273
3.350000	-26.043807	31.786223	-0.081875	-60.123108	-0.081875	-60.123108	-26.044923	31.853812
3.400000	-25.724144	30.845788	-0.084119	-61.038492	-0.084119	-61.038492	-25.725250	30.912365
3.450000	-25.408757	29.905369	-0.086439	-61.954770	-0.086439	-61.954770	-25.409852	29.970938
3.500000	-25.097564	28.964970	-0.088839	-62.871954	-0.088839	-62.871954	-25.098649	29.029535
3.550000	-24.790484	28.024586	-0.091322	-63.790054	-0.091322	-63.790054	-24.791559	28.088153
3.600000	-24.487441	27.084214	-0.093890	-64.709078	-0.093890	-64.709078	-24.488506	27.146785
3.650000	-24.188360	26.143842	-0.096548	-65.629036	-0.096548	-65.629036	-24.189415	26.205424
3.700000	-23.893166	25.203459	-0.099298	-66.549938	-0.099298	-66.549938	-23.894212	25.264055
3.750000	-23.601791	24.263048	-0.102144	-67.471790	-0.102144	-67.471790	-23.602827	24.322664
3.800000	-23.313915	23.322589	-0.105093	-68.394642	-0.105093	-68.394642	-23.314943	23.381230
3.850000	-23.029737	22.382064	-0.108145	-69.318462	-0.108145	-69.318462	-23.030757	22.439734
3.900000	-22.749192	21.441450	-0.111303	-70.243253	-0.111303	-70.243253	-22.750203	21.498155
3.950000	-22.472216	20.500725	-0.114571	-71.169024	-0.114571	-71.169024	-22.473220	20.556470
4.000000	-22.198749	19.559864	-0.117952	-72.095778	-0.117952	-72.095778	-22.199745	19.614655
4.050000	-21.928732	18.618843	-0.121450	-73.023520	-0.121450	-73.023520	-21.929720	18.672685
4.100000	-21.662106	17.677637	-0.125069	-73.952254	-0.125069	-73.952254	-21.663087	17.730535
4.150000	-21.398818	16.736221	-0.128813	-74.881984	-0.128813	-74.881984	-21.399792	16.788179
4.200000	-21.138814	15.794568	-0.132685	-75.812712	-0.132685	-75.812712	-21.139781	15.845592
4.250000	-20.882041	14.852653	-0.136689	-76.744440	-0.136689	-76.744440	-20.883002	14.902749
4.300000	-20.628450	13.910451	-0.140829	-77.677168	-0.140829	-77.677168	-20.629405	13.959624
4.350000	-20.377993	12.967939	-0.145109	-78.610898	-0.145109	-78.610898	-20.378942	13.016193
4.400000	-20.131133	12.025138	-0.149514	-79.545499	-0.149514	-79.545499	-20.132076	12.072479
4.450000	-19.886746	11.081932	-0.154086	-80.481240	-0.154086	-80.481240	-19.887684	11.128365
4.500000	-19.645359	10.138347	-0.158811	-81.417979	-0.158811	-81.417979	-19.646292	10.183876
4.550000	-19.406931	9.194361	-0.163692	-82.355713	-0.163692	-82.355713	-19.407859	9.238992
4.600000	-19.171420	8.249956	-0.168732	-83.294439	-0.168732	-83.294439	-19.172344	8.293694
4.650000	-18.938787	7.305113	-0.173937	-84.234151	-0.173937	-84.234151	-18.939706	7.347963
4.700000	-18.708993	6.359818	-0.179310	-85.174845	-0.179310	-85.174845	-18.709908	6.401783
4.750000	-18.482001	5.414054	-0.184855	-86.116514	-0.184855	-86.116514	-18.482913	5.455141
4.800000	-18.257776	4.467811	-0.190576	-87.059152	-0.190576	-87.059152	-18.258683	4.508022
4.850000	-18.036282	3.521075	-0.196477	-88.002749	-0.196477	-88.002749	-18.037186	3.560416
4.900000	-17.817486	2.573839	-0.202563	-88.947299	-0.202563	-88.947299	-17.818387	2.612314
4.950000	-17.601355	1.626096	-0.208838	-89.892789	-0.208838	-89.892789	-17.602253	1.663709
5.000000	-17.387859	0.677840	-0.215305	-90.839211	-0.215305	-90.839211	-17.388753	0.714594
5.050000	-17.176911	-0.270944	-0.221973	-91.786573	-0.221973	-91.786573	-17.177803	-0.235044
5.100000	-16.968542	-1.220245	-0.228841	-92.734840	-0.228841	-92.734840	-16.969431	-1.185195
5.150000	-16.762721	-2.170061	-0.235914	-93.684000	-0.235914	-93.684000	-16.763608	-2.135859
5.200000	-16.559422	-3.120390	-0.243196	-94.634039	-0.243196	-94.634039	-16.560306	-3.087032
5.250000	-16.358616	-4.071226	-0.250691	-95.584941	-0.250691	-95.584941	-16.359498	-4.038709
5.300000	-16.160278	-5.022563	-0.258402	-96.536690	-0.258402	-96.536690	-16.161158	-4.990882
5.350000	-15.964382	-5.974389	-0.266333	-97.489268	-0.266333	-97.489268	-15.965260	-5.943543
5.400000	-15.770902	-6.926694	-0.274488	-98.442658	-0.274488	-98.442658	-15.771778	-6.896679
5.450000	-15.579815	-7.879463	-0.282871	-99.396839	-0.282871	-99.396839	-15.580689	-7.850278
5.500000	-15.391096	-8.832682	-0.291486	-100.351793	-0.291486	-100.351793	-15.391969	-8.804324
5.550000	-15.204724	-9.786332	-0.300335	-101.307498	-0.300335	-101.307498	-15.205595	-9.758798
5.600000	-15.020674	-10.740393	-0.309423	-102.263933	-0.309423	-102.263933	-15.021544	-10.713682
5.650000	-14.838909	-11.694849	-0.318755	-103.221081	-0.318755	-103.221081	-14.839778	-11.668957
5.700000	-14.659411	-12.649673	-0.328335	-104.178919	-0.328335	-104.178919	-14.660279	-12.624600
5.750000	-14.482174	-13.604837	-0.338163	-105.137414	-0.338163	-105.137414	-14.483041	-13.580581
5.800000	-14.307178	-14.560314	-0.348244	-106.096540	-0.348244	-106.096540	-14.308044	-14.536872
5.850000	-14.134402	-15.516073	-0.358579	-107.056272	-0.358579	-107.056272	-14.135268	-15.493445
5.900000	-13.963828	-16.472086	-0.369172	-108.016581	-0.369172	-108.016581	-13.964693	-16.450270
5.950000	-13.795434	-17.428318	-0.380025	-108.977439	-0.380025	-108.977439	-13.796299	-17.407314
6.000000	-13.629202	-18.384738	-0.391142	-109.938818	-0.391142	-109.938818	-13.630067	-18.364544
6.050000	-13.465113	-19.341309	-0.402524	-110.900689	-0.402524	-110.900689	-13.465978	-19.321925
6.100000	-13.303148	-20.297996	-0.414175	-111.863019	-0.414175	-111.863019	-13.304013	-20.279421
6.150000	-13.143289	-21.254760	-0.426097	-112.825779	-0.426097	-112.825779	-13.144154	-21.236993
6.200000	-12.985517	-22.211564	-0.438291	-113.788936	-0.438291	-113.788936	-12.986383	-22.194605
6.250000	-12.829816	-23.168366	-0.450760	-114.752457	-0.450760	-114.752457	-12.830681	-23.152215
6.300000	-12.676151	-24.125125	-0.463512	-115.716315	-0.463512	-115.716315	-12.677018	-24.109781
6.350000	-12.524524	-25.081798	-0.476543	-116.680469	-0.476543	-116.680469	-12.525391	-25.067261
6.400000	-12.374916	-26.038344	-0.489854	-117.644883	-0.489854	-117.644883	-12.375784	-26.024614
6.450000	-12.227310	-26.994718	-0.503446	-118.609522	-0.503446	-118.609522	-12.228180	-26.981795
6.500000	-12.081665	-27.950864	-0.517336	-119.574359	-0.517336	-119.574359	-12.082535	-27.938749
6.550000	-11.938010	-28.906758	-0.531499	-120.539338	-0.531499	-120.539338	-11.938882	-28.895450
6.600000	-11.796307	-29.862346	-0.545947	-121.504433	-0.545947	-121.504433	-11.797181	-29.851847
6.650000	-11.656539	-30.817585	-0.560680	-122.469605	-0.560680	-122.469605	-11.657416	-30.807894
6.700000	-11.518690	-31.772427	-0.575700	-123.434816	-0.575700	-123.434816	-11.519569	-31.763546
6.750000	-11.382743	-32.726828	-0.591007	-124.400028	-0.591007	-124.400028	-11.383624	-32.718757
6.800000	-11.248682	-33.680742	-0.606601	-125.365203	-0.606601	-125.365203	-11.249565	-33.673481
6.850000	-11.116490	-34.634123	-0.622482	-126.330301	-0.622482	-126.330301	-11.117376	-34.627674
6.900000	-10.986151	-35.586927	-0.638650	-127.295283	-0.638650	-127.295283	-10.987040	-35.581290
6.950000	-10.857648	-36.539107	-0.655105	-128.260109	-0.655105	-128.260109	-10.858540	-36.534284
7.000000	-10.730966	-37.490619	-0.671845	-129.224740	-0.671845	-129.224740	-10.731862	-37.486610
7.050000	-10.606089	-38.441417	-0.688872	-130.189136	-0.688872	-130.189136	-10.606988	-38.438224
7.100000	-10.483000	-39.391458	-0.706183	-131.153257	-0.706183	-131.153257	-10.483903	-39.389082
7.150000	-10.361685	-40.340698	-0.723777	-132.117063	-0.723777	-132.117063	-10.362592	-40.339140
7.200000	-10.242127	-41.289093	-0.741653	-133.080514	-0.741653	-133.080514	-10.243038	-41.288354
7.250000	-10.124310	-42.236601	-0.759810	-134.043569	-0.759810	-134.043569	-10.125225	-42.236683
7.300000	-10.008219	-43.183178	-0.778246	-135.006188	-0.778246	-135.006188	-10.009139	-43.184083
7.350000	-9.893838	-44.128785	-0.796958	-135.968332	-0.796958	-135.968332	-9.894763	-44.130514
7.400000	-9.781153	-45.073379	-0.815946	-136.929961	-0.815946	-136.929961	-9.782083	-45.075934
7.450000	-9.670148	-46.016922	-0.835206	-137.891034	-0.835206	-137.891034	-9.671083	-46.020304
7.500000	-9.560807	-46.959374	-0.854736	-138.851513	-0.854736	-138.851513	-9.561747	-46.963586
7.550000	-9.453129	-47.900645	-0.874543	-139.811330	-0.874543	-139.811330	-9.454075	-47.905688
7.600000	-9.347089	-48.840746	-0.894614	-140.770470	-0.894614	-140.770470	-9.348041	-48.846623
7.650000	-9.242670	-49.779640	-0.914946	-141.728896	-0.914946	-141.728896	-9.243628	-49.786353
7.700000	-9.139859	-50.717292	-0.935536	-142.686569	-0.935536	-142.686569	-9.140822	-50.724844
7.750000	-9.038639	-51.653666	-0.956379	-143.643453	-0.956379	-143.643453	-9.039609	-51.662059
7.800000	-8.938998	-52.588730	-0.977473	-144.599509	-0.977473	-144.599509	-8.939974	-52.597967
7.850000	-8.840920	-53.522451	-0.998813	-145.554702	-0.998813	-145.554702	-8.841902	-53.532534
7.900000	-8.744390	-54.454797	-1.020396	-146.508995	-1.020396	-146.508995	-8.745379	-54.465729
7.950000	-8.649396	-55.385736	-1.042217	-147.462353	-1.042217	-147.462353	-8.650392	-55.397521
8.000000	-8.555922	-56.315239	-1.064271	-148.414741	-1.064271	-148.414741	-8.556925	-56.327880
8.050000	-8.463956	-57.243278	-1.086554	-149.366125	-1.086554	-149.366125	-8.464965	-57.256777
8.100000	-8.373482	-58.169823	-1.109062	-150.316472	-1.109062	-150.316472	-8.374499	-58.184185
8.150000	-8.284489	-59.094848	-1.131789	-151.265749	-1.131789	-151.265749	-8.285513	-59.110076
8.200000	-8.196962	-60.018326	-1.154729	-152.213925	-1.154729	-152.213925	-8.197993	-60.034425
8.250000	-8.110888	-60.940233	-1.177878	-153.160968	-1.177878	-153.160968	-8.111927	-60.957205
8.300000	-8.026255	-61.860542	-1.201231	-154.106849	-1.201231	-154.106849	-8.027301	-61.878393
8.350000	-7.943049	-62.779231	-1.224781	-155.051538	-1.224781	-155.051538	-7.944103	-62.797966
8.400000	-7.861258	-63.696277	-1.248523	-155.995006	-1.248523	-155.995006	-7.862320	-63.715899
8.450000	-7.780870	-64.611656	-1.272450	-156.937228	-1.272450	-156.937228	-7.781939	-64.632171
8.500000	-7.701872	-65.525347	-1.296558	-157.878176	-1.296558	-157.878176	-7.702949	-65.546760
8.550000	-7.624253	-66.437330	-1.320839	-158.817824	-1.320839	-158.817824	-7.625338	-66.459646
8.600000	-7.548000	-67.347584	-1.345286	-159.756150	-1.345286	-159.756150	-7.549093	-67.370809
8.650000	-7.473102	-68.256089	-1.369895	-160.693129	-1.369895	-160.693129	-7.474203	-68.280229
8.700000	-7.399547	-69.162826	-1.394658	-161.628740	-1.394658	-161.628740	-7.400657	-69.187886
8.750000	-7.327325	-70.067775	-1.419567	-162.562962	-1.419567	-162.562962	-7.328444	-70.093763
8.800000	-7.256456	-70.970840	-1.444620	-163.495711	-1.444620	-163.495711	-7.257584	-70.997762
8.850000	-7.186899	-71.872080	-1.469806	-164.427032	-1.469806	-164.427032	-7.188035	-71.899943
8.900000	-7.118643	-72.771477	-1.495117	-165.356905	-1.495117	-165.356905	-7.119788	-72.800288
8.950000	-7.051677	-73.669013	-1.520546	-166.285315	-1.520546	-166.285315	-7.052831	-73.698780
9.000000	-6.985991	-74.564673	-1.546087	-167.212247	-1.546087	-167.212247	-6.987155	-74.595403
9.050000	-6.921575	-75.458439	-1.571731	-168.137688	-1.571731	-168.137688	-6.922749	-75.490140
9.100000	-6.858420	-76.350294	-1.597471	-169.061624	-1.597471	-169.061624	-6.859604	-76.382974
9.150000	-6.796515	-77.240221	-1.623301	-169.984044	-1.623301	-169.984044	-6.797709	-77.273889
9.200000	-6.735851	-78.128203	-1.649211	-170.904939	-1.649211	-170.904939	-6.737056	-78.162868
9.250000	-6.676419	-79.014225	-1.675195	-171.824300	-1.675195	-171.824300	-6.677636	-79.049895
9.300000	-6.618211	-79.898269	-1.701245	-172.742120	-1.701245	-172.742120	-6.619438	-79.934953
9.350000	-6.561216	-80.780318	-1.727352	-173.658392	-1.727352	-173.658392	-6.562455	-80.818027
9.400000	-6.505426	-81.660356	-1.753510	-174.573111	-1.753510	-174.573111	-6.506678	-81.699098
9.450000	-6.450833	-82.538364	-1.779710	-175.486274	-1.779710	-175.486274	-6.452098	-82.578150
9.500000	-6.397429	-83.414327	-1.805944	-176.397879	-1.805944	-176.397879	-6.398707	-83.455167
9.550000	-6.345205	-84.288226	-1.832204	-177.307925	-1.832204	-177.307925	-6.346497	-84.330130
9.600000	-6.294153	-85.160042	-1.858482	-178.216413	-1.858482	-178.216413	-6.295459	-85.203021
9.650000	-6.244265	-86.029759	-1.884771	-179.123343	-1.884771	-179.123343	-6.245587	-86.073823
9.700000	-6.195534	-86.897356	-1.911062	179.971280	-1.911062	179.971280	-6.196871	-86.942518
9.750000	-6.147951	-87.762816	-1.937346	179.067453	-1.937346	179.067453	-6.149306	-87.809085
9.800000	-6.101510	-88.626117	-1.963617	178.165170	-1.963617	178.165170	-6.102882	-88.673506
9.850000	-6.056203	-89.487242	-1.989865	177.264423	-1.989865	177.264423	-6.057594	-89.535761
9.900000	-6.012023	-90.346168	-2.016084	176.365205	-2.016084	176.365205	-6.013433	-90.395830
9.950000	-5.968963	-91.202874	-2.042263	175.467505	-2.042263	175.467505	-5.970393	-91.253691
10.000000	-5.927015	-92.057341	-2.068397	174.571313	-2.068397	174.571313	-5.928466	-92.109323
