! freq	dB(S11)	phase(S11)	dB(S12)	phase(S12)	
!     	dB(S21)	phase(S21)	dB(S22)	phase(S22)	
!S-par simulation data
#  GHz  S  DB  R 50
0.000000	0.000000	0.000000	-429.904341	0.000000	-429.904341	0.000000	-0.000000	0.000000
0.050000	-0.000218	-0.836290	-97.587950	179.280374	-97.587950	179.280374	-0.000165	-0.746131
0.100000	-0.000825	-1.671656	-97.594024	178.253247	-97.594024	178.253247	-0.000630	-1.491653
0.150000	-0.001746	-2.505333	-97.604528	177.274341	-97.604528	177.274341	-0.001357	-2.236013
0.200000	-0.002852	-3.337150	-97.619330	176.282824	-97.619330	176.282824	-0.002260	-2.979018
0.250000	-0.004053	-4.167144	-97.638662	175.259628	-97.638662	175.259628	-0.003273	-3.720598
0.300000	-0.005284	-4.995631	-97.662411	174.195650	-97.662411	174.195650	-0.004343	-4.460919
0.350000	-0.006509	-5.822691	-97.691377	173.074551	-97.691377	173.074551	-0.005436	-5.199974
0.400000	-0.007697	-6.648304	-97.727702	171.858244	-97.727702	171.858244	-0.006521	-5.937659
0.450000	-0.008875	-7.473614	-97.765985	170.616354	-97.765985	170.616354	-0.007601	-6.675051
0.500000	-0.010005	-8.297590	-97.814231	169.224477	-97.814231	169.224477	-0.008649	-7.411134
0.550000	-0.011124	-9.121227	-97.866010	167.774324	-97.866010	167.774324	-0.009688	-8.146892
0.600000	-0.012218	-9.944021	-97.926314	166.178479	-97.926314	166.178479	-0.010702	-8.881837
0.650000	-0.013302	-10.766268	-97.993060	164.456250	-97.993060	164.456250	-0.011703	-9.616282
0.700000	-0.014375	-11.587970	-98.066392	162.607638	-98.066392	162.607638	-0.012691	-10.350227
0.750000	-0.015441	-12.408897	-98.148875	160.537471	-98.148875	160.537471	-0.013667	-11.083496
0.800000	-0.016505	-13.229514	-98.235595	158.378680	-98.235595	158.378680	-0.014638	-11.816494
0.850000	-0.017566	-14.049098	-98.332944	155.868404	-98.332944	155.868404	-0.015599	-12.548622
0.900000	-0.018626	-14.868437	-98.433110	153.265440	-98.433110	153.265440	-0.016558	-13.280547
0.950000	-0.019685	-15.686788	-98.540247	150.268573	-98.540247	150.268573	-0.017512	-14.011656
1.000000	-0.020744	-16.504711	-98.648467	147.074277	-98.648467	147.074277	-0.018463	-14.742415
1.050000	-0.021802	-17.321863	-98.757590	143.524610	-98.757590	143.524610	-0.019412	-15.472547
1.100000	-0.022860	-18.138307	-98.860222	139.602314	-98.860222	139.602314	-0.020359	-16.202104
1.150000	-0.023918	-18.954218	-98.958104	135.400546	-98.958104	135.400546	-0.021304	-16.931229
1.200000	-0.024974	-19.769122	-99.029734	130.617555	-99.029734	130.617555	-0.022246	-17.659540
1.250000	-0.026030	-20.583751	-99.094449	125.676050	-99.094449	125.676050	-0.023188	-18.387629
1.300000	-0.027084	-21.397058	-99.094361	119.954444	-99.094361	119.954444	-0.024127	-19.114649
1.350000	-0.028137	-22.210073	-99.071994	114.078115	-99.071994	114.078115	-0.025066	-19.841434
1.400000	-0.029188	-23.022019	-98.968688	107.634465	-98.968688	107.634465	-0.026003	-20.567355
1.450000	-0.030239	-23.833364	-98.804745	100.965531	-98.804745	100.965531	-0.026939	-21.292790
1.500000	-0.031287	-24.643910	-98.563545	93.996218	-98.563545	93.996218	-0.027873	-22.017578
1.550000	-0.032335	-25.453531	-98.216759	86.891289	-98.216759	86.891289	-0.028807	-22.741617
1.600000	-0.033381	-26.262638	-97.823943	79.711020	-97.823943	79.711020	-0.029740	-23.465239
1.650000	-0.034426	-27.070478	-97.289444	72.637534	-97.289444	72.637534	-0.030673	-24.187835
1.700000	-0.035471	-27.877999	-96.747701	65.608083	-96.747701	65.608083	-0.031606	-24.910171
1.750000	-0.036515	-28.684111	-96.073460	58.919719	-96.073460	58.919719	-0.032538	-25.631362
1.800000	-0.037560	-29.489778	-95.398886	52.365090	-95.398886	52.365090	-0.033471	-26.352191
1.850000	-0.038604	-30.294333	-94.660200	46.144799	-94.660200	46.144799	-0.034404	-27.072115
1.900000	-0.039649	-31.098089	-93.904935	40.150170	-93.904935	40.150170	-0.035339	-27.791388
1.950000	-0.040695	-31.901046	-93.141906	34.381205	-93.141906	34.381205	-0.036274	-28.510010
2.000000	-0.041743	-32.702833	-92.349129	28.876030	-92.349129	28.876030	-0.037212	-29.227677
2.050000	-0.042792	-33.504153	-91.589312	23.476371	-91.589312	23.476371	-0.038150	-29.944962
2.100000	-0.043844	-34.303914	-90.788849	18.322675	-90.788849	18.322675	-0.039091	-30.660972
2.150000	-0.044897	-35.103311	-90.034235	13.211090	-90.034235	13.211090	-0.040034	-31.376683
2.200000	-0.045955	-35.901235	-89.259645	8.238652	-89.259645	8.238652	-0.040981	-32.091188
2.250000	-0.047015	-36.698533	-88.517569	3.292006	-88.517569	3.292006	-0.041930	-32.805178
2.300000	-0.048079	-37.494702	-87.782696	-1.608213	-87.782696	-1.608213	-0.042882	-33.518241
2.350000	-0.049148	-38.289845	-87.063698	-6.509650	-87.063698	-6.509650	-0.043839	-34.230461
2.400000	-0.050220	-39.084220	-86.370991	-11.412000	-86.370991	-11.412000	-0.044799	-34.942048
2.450000	-0.051299	-39.877157	-85.682782	-16.361708	-85.682782	-16.361708	-0.045764	-35.652450
2.500000	-0.052380	-40.669702	-85.033328	-21.324333	-85.033328	-21.324333	-0.046732	-36.362528
2.550000	-0.053471	-41.460381	-84.382178	-26.389558	-84.382178	-26.389558	-0.047708	-37.071064
2.600000	-0.054564	-42.250653	-83.768433	-31.482551	-83.768433	-31.482551	-0.048686	-37.779263
2.650000	-0.055667	-43.039432	-83.167721	-36.677366	-83.167721	-36.677366	-0.049672	-38.486226
2.700000	-0.056775	-43.827384	-82.594931	-41.932972	-82.594931	-41.932972	-0.050662	-39.192502
2.750000	-0.057890	-44.614232	-82.043882	-47.269635	-82.043882	-47.269635	-0.051659	-39.897861
2.800000	-0.059014	-45.399819	-81.515965	-52.696574	-81.515965	-52.696574	-0.052663	-40.602171
2.850000	-0.060143	-46.184705	-81.013192	-58.173668	-81.013192	-58.173668	-0.053671	-41.305897
2.900000	-0.061282	-46.968172	-80.532562	-63.743195	-80.532562	-63.743195	-0.054689	-42.008439
2.950000	-0.062430	-47.750509	-80.075131	-69.378573	-80.075131	-69.378573	-0.055713	-42.710038
3.000000	-0.063587	-48.531758	-79.640179	-75.069770	-79.640179	-75.069770	-0.056745	-43.410725
3.050000	-0.064753	-49.311911	-79.226550	-80.809364	-79.226550	-80.809364	-0.057784	-44.110494
3.100000	-0.065928	-50.090946	-78.832944	-86.589809	-78.832944	-86.589809	-0.058832	-44.809323
3.150000	-0.067116	-50.868584	-78.458181	-92.408243	-78.458181	-92.408243	-0.059890	-45.506978
3.200000	-0.068313	-51.645174	-78.099710	-98.243564	-78.099710	-98.243564	-0.060956	-46.203749
3.250000	-0.069518	-52.420878	-77.755824	-104.090898	-77.755824	-104.090898	-0.062029	-46.899773
3.300000	-0.070738	-53.195048	-77.424205	-109.946272	-77.424205	-109.946272	-0.063114	-47.594500
3.350000	-0.071969	-53.968113	-77.102091	-115.797078	-77.102091	-115.797078	-0.064208	-48.288290
3.400000	-0.073208	-54.740279	-76.788776	-121.642223	-76.788776	-121.642223	-0.065310	-48.981317
3.450000	-0.074464	-55.510934	-76.479408	-127.469435	-76.479408	-127.469435	-0.066426	-49.673059
3.500000	-0.075731	-56.280428	-76.172419	-133.275758	-76.172419	-133.275758	-0.067552	-50.363811
3.550000	-0.077009	-57.049014	-75.868819	-139.064343	-75.868819	-139.064343	-0.068686	-51.053788
3.600000	-0.078303	-57.816116	-75.561542	-144.819309	-75.561542	-144.819309	-0.069835	-51.742495
3.650000	-0.079611	-58.582006	-75.250382	-150.542754	-75.250382	-150.542754	-0.070995	-52.430161
3.700000	-0.080930	-59.346980	-74.938567	-156.241677	-74.938567	-156.241677	-0.072165	-53.117041
3.750000	-0.082266	-60.110503	-74.617700	-161.899831	-74.617700	-161.899831	-0.073349	-53.802670
3.800000	-0.083618	-60.872765	-74.288438	-167.521386	-74.288438	-167.521386	-0.074548	-54.487210
3.850000	-0.084982	-61.634106	-73.956377	-173.116370	-73.956377	-173.116370	-0.075756	-55.170952
3.900000	-0.086364	-62.394035	-73.612771	-178.670794	-73.612771	-178.670794	-0.076980	-55.853469
3.950000	-0.087763	-63.152656	-73.258426	175.810210	-73.258426	175.810210	-0.078220	-56.534847
4.000000	-0.089176	-63.910355	-72.901084	170.314926	-72.901084	170.314926	-0.079470	-57.215421
4.050000	-0.090607	-64.666683	-72.532476	164.852777	-72.532476	164.852777	-0.080737	-57.894796
4.100000	-0.092058	-65.421662	-72.152980	159.417403	-72.152980	159.417403	-0.082021	-58.572987
4.150000	-0.093523	-66.175720	-71.771939	153.997636	-71.771939	153.997636	-0.083317	-59.250367
4.200000	-0.095008	-66.928453	-71.382173	148.596702	-71.382173	148.596702	-0.084630	-59.926578
4.250000	-0.096515	-67.679797	-70.983426	143.205978	-70.983426	143.205978	-0.085962	-60.601561
4.300000	-0.098037	-68.430175	-70.584914	137.817668	-70.584914	137.817668	-0.087308	-61.275685
4.350000	-0.099582	-69.179148	-70.179801	132.427935	-70.179801	132.427935	-0.088674	-61.948558
4.400000	-0.101146	-69.927053	-69.775688	127.026838	-69.775688	127.026838	-0.090056	-62.620476
4.450000	-0.102728	-70.673890	-69.373261	121.614378	-69.373261	121.614378	-0.091454	-63.291437
4.500000	-0.104338	-71.419209	-68.968459	116.170173	-68.968459	116.170173	-0.092876	-63.961032
4.550000	-0.105958	-72.163921	-68.573971	110.713272	-68.573971	110.713272	-0.094307	-64.630080
4.600000	-0.107616	-72.906672	-68.177079	105.196976	-68.177079	105.196976	-0.095770	-65.297352
4.650000	-0.109282	-73.648972	-67.794219	99.664852	-67.794219	99.664852	-0.097241	-65.964213
4.700000	-0.110984	-74.389475	-67.416739	94.065178	-67.416739	94.065178	-0.098743	-66.629435
4.750000	-0.112701	-75.129236	-67.053784	88.434610	-67.053784	88.434610	-0.100258	-67.293975
4.800000	-0.114447	-75.867659	-66.703319	82.748433	-66.703319	82.748433	-0.101798	-67.957287
4.850000	-0.116217	-76.604906	-66.370306	77.013642	-66.370306	77.013642	-0.103359	-68.619510
4.900000	-0.118008	-77.341270	-66.052380	71.242392	-66.052380	71.242392	-0.104938	-69.280915
4.950000	-0.119835	-78.076032	-65.758553	65.413257	-65.758553	65.413257	-0.106547	-69.940827
5.000000	-0.121672	-78.810356	-65.477744	59.568337	-65.477744	59.568337	-0.108166	-70.600332
5.050000	-0.123558	-79.542665	-65.230365	53.670273	-65.230365	53.670273	-0.109826	-71.257941
5.100000	-0.125454	-80.274548	-64.996573	47.766580	-64.996573	47.766580	-0.111496	-71.915146
5.150000	-0.127391	-81.004865	-64.793007	41.842249	-64.793007	41.842249	-0.113199	-72.570868
5.200000	-0.129350	-81.734342	-64.608887	35.919047	-64.608887	35.919047	-0.114921	-73.225784
5.250000	-0.131338	-82.462696	-64.447936	29.997350	-64.447936	29.997350	-0.116669	-73.879627
5.300000	-0.133362	-83.189805	-64.312032	24.094082	-64.312032	24.094082	-0.118446	-74.532268
5.350000	-0.135405	-83.916224	-64.190347	18.201053	-64.190347	18.201053	-0.120240	-75.184242
5.400000	-0.137497	-84.641009	-64.097268	12.348832	-64.097268	12.348832	-0.122074	-75.834624
5.450000	-0.139601	-85.365389	-64.011501	6.507476	-64.011501	6.507476	-0.123918	-76.484608
5.500000	-0.141759	-86.088030	-63.950788	0.718958	-63.950788	0.718958	-0.125807	-77.132878
5.550000	-0.143934	-86.810145	-63.895985	-5.053537	-63.895985	-5.053537	-0.127711	-77.780625
5.600000	-0.146153	-87.530947	-63.855174	-10.785975	-63.855174	-10.785975	-0.129649	-78.427063
5.650000	-0.148403	-88.250847	-63.820154	-16.495124	-63.820154	-16.495124	-0.131614	-79.072592
5.700000	-0.150685	-88.969845	-63.790858	-22.180985	-63.790858	-22.180985	-0.133604	-79.717212
5.750000	-0.153013	-89.687583	-63.763665	-27.844578	-63.763665	-27.844578	-0.135631	-80.360545
5.800000	-0.155359	-90.404815	-63.737356	-33.499264	-63.737356	-33.499264	-0.137673	-81.003363
5.850000	-0.157768	-91.120445	-63.705912	-39.141555	-63.705912	-39.141555	-0.139764	-81.644523
5.900000	-0.160192	-91.835710	-63.672203	-44.783367	-63.672203	-44.783367	-0.141867	-82.285303
5.950000	-0.162676	-92.549530	-63.626794	-50.428032	-63.626794	-50.428032	-0.144017	-82.924569
6.000000	-0.165186	-93.262763	-63.573878	-56.078304	-63.573878	-56.078304	-0.146187	-83.563210
6.050000	-0.167743	-93.974939	-63.507442	-61.738670	-63.507442	-61.738670	-0.148392	-84.200727
6.100000	-0.170343	-94.686200	-63.425011	-67.411338	-63.425011	-67.411338	-0.150630	-84.837256
6.150000	-0.172976	-95.396776	-63.331115	-73.093232	-63.331115	-73.093232	-0.152892	-85.473045
6.200000	-0.175670	-96.106129	-63.210604	-78.790757	-63.210604	-78.790757	-0.155199	-86.107493
6.250000	-0.178383	-96.815149	-63.084326	-84.492546	-63.084326	-84.492546	-0.157518	-86.741575
6.300000	-0.181178	-97.522659	-62.919663	-90.205829	-62.919663	-90.205829	-0.159896	-87.373974
6.350000	-0.183992	-98.229855	-62.748509	-95.918815	-62.748509	-95.918815	-0.162287	-88.006016
6.400000	-0.186876	-98.935900	-62.546381	-101.630712	-62.546381	-101.630712	-0.164724	-88.636755
6.450000	-0.189801	-99.641336	-62.328925	-107.336025	-62.328925	-107.336025	-0.167187	-89.266792
6.500000	-0.192780	-100.345960	-62.090923	-113.032561	-62.090923	-113.032561	-0.169685	-89.895895
6.550000	-0.195827	-101.049696	-61.829443	-118.711904	-61.829443	-118.711904	-0.172222	-90.523964
6.600000	-0.198911	-101.752937	-61.559555	-124.381696	-61.559555	-124.381696	-0.174781	-91.151459
6.650000	-0.202095	-102.455016	-61.259853	-130.023615	-61.259853	-130.023615	-0.177393	-91.777598
6.700000	-0.205307	-103.156804	-60.961071	-135.658671	-60.961071	-135.658671	-0.180018	-92.403401
6.750000	-0.208646	-103.857328	-60.634908	-141.264887	-60.634908	-141.264887	-0.182701	-93.027763
6.800000	-0.212035	-104.557439	-60.310369	-146.864686	-60.310369	-146.864686	-0.185403	-93.651691
6.850000	-0.215548	-105.256518	-59.973017	-152.448445	-59.973017	-152.448445	-0.188151	-94.274532
6.900000	-0.219175	-105.954723	-59.634316	-158.027998	-59.634316	-158.027998	-0.190930	-94.896629
6.950000	-0.222917	-106.652055	-59.294901	-163.603343	-59.294901	-163.603343	-0.193742	-95.517982
7.000000	-0.226887	-107.347434	-58.954825	-169.184528	-58.954825	-169.184528	-0.196601	-96.138296
7.050000	-0.230950	-108.042031	-58.622397	-174.768049	-58.622397	-174.768049	-0.199478	-96.758194
7.100000	-0.235318	-108.731080	-58.294209	179.626324	-58.294209	179.626324	-0.202417	-97.376775
7.150000	-0.239653	-109.418221	-57.977477	174.014918	-57.977477	174.014918	-0.205369	-97.995090
7.200000	-0.243635	-110.096468	-57.672474	168.379035	-57.672474	168.379035	-0.208369	-98.612416
7.250000	-0.245400	-110.769030	-57.383654	162.718349	-57.383654	162.718349	-0.211412	-99.228883
7.300000	-0.245257	-111.454074	-57.112637	157.036560	-57.112637	157.036560	-0.214493	-99.844633
7.350000	-0.245477	-112.153631	-56.860955	151.335083	-56.860955	151.335083	-0.217612	-100.459678
7.400000	-0.247185	-112.860960	-56.629849	145.616320	-56.629849	145.616320	-0.220770	-101.074030
7.450000	-0.250342	-113.567132	-56.420278	139.883558	-56.420278	139.883558	-0.223967	-101.687702
7.500000	-0.254183	-114.269218	-56.232913	134.140846	-56.232913	134.140846	-0.227203	-102.300707
7.550000	-0.258283	-114.967495	-56.072840	128.393459	-56.072840	128.393459	-0.230490	-102.912909
7.600000	-0.262447	-115.663798	-55.935338	122.648621	-55.935338	122.648621	-0.233820	-103.524478
7.650000	-0.266644	-116.358651	-55.819510	116.910756	-55.819510	116.910756	-0.237193	-104.135429
7.700000	-0.270862	-117.052424	-55.724162	111.183658	-55.724162	111.183658	-0.240611	-104.745776
7.750000	-0.275098	-117.745380	-55.647824	105.470343	-55.647824	105.470343	-0.244077	-105.355531
7.800000	-0.279354	-118.437699	-55.588760	99.772922	-55.588760	99.772922	-0.247591	-105.964708
7.850000	-0.283635	-119.129444	-55.547014	94.095249	-55.547014	94.095249	-0.251168	-106.573222
7.900000	-0.287944	-119.820791	-55.517637	88.434231	-55.517637	88.434231	-0.254804	-107.181148
7.950000	-0.292282	-120.511829	-55.497151	82.786571	-55.497151	82.786571	-0.258503	-107.788522
8.000000	-0.296650	-121.202613	-55.482851	77.149209	-55.482851	77.149209	-0.262269	-108.395336
8.050000	-0.301049	-121.893191	-55.471977	71.518497	-55.471977	71.518497	-0.266107	-109.001568
8.100000	-0.305482	-122.583601	-55.461356	65.889887	-55.461356	65.889887	-0.270028	-109.607137
8.150000	-0.309970	-123.273840	-55.444320	60.254169	-55.444320	60.254169	-0.274087	-110.211486
8.200000	-0.314460	-123.964078	-55.427318	54.618451	-55.427318	54.618451	-0.278149	-110.815836
8.250000	-0.319006	-124.654272	-55.393304	48.961065	-55.393304	48.961065	-0.282325	-111.418469
8.300000	-0.323577	-125.344448	-55.352640	43.295011	-55.352640	43.295011	-0.286549	-112.020415
8.350000	-0.328174	-126.034678	-55.299078	37.614227	-55.299078	37.614227	-0.290760	-112.621487
8.400000	-0.332821	-126.725016	-55.219886	31.903983	-55.219886	31.903983	-0.294945	-113.220811
8.450000	-0.337471	-127.415353	-55.141410	26.193738	-55.141410	26.193738	-0.299132	-113.820134
8.500000	-0.342185	-128.106069	-55.015217	20.440885	-55.015217	20.440885	-0.303130	-114.418460
8.550000	-0.346904	-128.796804	-54.888452	14.685902	-54.888452	14.685902	-0.307119	-115.016735
8.600000	-0.351649	-129.487802	-54.739038	8.914470	-54.739038	8.914470	-0.311072	-115.615199
8.650000	-0.356424	-130.179150	-54.562716	3.124517	-54.562716	3.124517	-0.315010	-116.213936
8.700000	-0.361219	-130.870842	-54.366007	-2.678341	-54.366007	-2.678341	-0.318984	-116.812933
8.750000	-0.366032	-131.562927	-54.149938	-8.493327	-54.149938	-8.493327	-0.323020	-117.412121
8.800000	-0.370864	-132.255594	-53.910746	-14.323478	-53.910746	-14.323478	-0.327148	-118.011408
8.850000	-0.375708	-132.948897	-53.654000	-20.169368	-53.654000	-20.169368	-0.331368	-118.610684
8.900000	-0.380561	-133.642689	-53.390003	-26.027594	-53.390003	-26.027594	-0.335650	-119.209921
8.950000	-0.385423	-134.337200	-53.115058	-31.904040	-53.115058	-31.904040	-0.340017	-119.809088
9.000000	-0.390296	-135.032791	-52.831055	-37.808582	-52.831055	-37.808582	-0.344485	-120.408136
9.050000	-0.395178	-135.729141	-52.548494	-43.732242	-52.548494	-43.732242	-0.349016	-121.007115
9.100000	-0.400072	-136.426525	-52.267188	-49.681503	-52.267188	-49.681503	-0.353624	-121.606005
9.150000	-0.404998	-137.125531	-51.993952	-55.664292	-51.993952	-55.664292	-0.358333	-122.204808
9.200000	-0.409956	-137.825626	-51.733221	-61.663551	-51.733221	-61.663551	-0.363103	-122.803576
9.250000	-0.414961	-138.527121	-51.487222	-67.681415	-51.487222	-67.681415	-0.367947	-123.402310
9.300000	-0.420083	-139.230801	-51.269371	-73.705087	-51.269371	-73.705087	-0.372896	-124.001045
9.350000	-0.425305	-139.935785	-51.074062	-79.717274	-51.074062	-79.717274	-0.377908	-124.599805
9.400000	-0.430659	-140.642330	-50.904847	-85.710500	-50.904847	-85.710500	-0.382994	-125.198604
9.450000	-0.436289	-141.351014	-50.780403	-91.629027	-50.780403	-91.629027	-0.388194	-125.797521
9.500000	-0.442104	-142.060682	-50.683817	-97.480287	-50.683817	-97.480287	-0.393462	-126.396534
9.550000	-0.448137	-142.771412	-50.618540	-103.248383	-50.618540	-103.248383	-0.398807	-126.995663
9.600000	-0.454524	-143.483123	-50.603652	-108.827112	-50.603652	-108.827112	-0.404278	-127.595043
9.650000	-0.461081	-144.195068	-50.615168	-114.277261	-50.615168	-114.277261	-0.409824	-128.194595
9.700000	-0.467819	-144.907214	-50.655448	-119.582582	-50.655448	-119.582582	-0.415451	-128.794340
9.750000	-0.474755	-145.619356	-50.738963	-124.601089	-50.738963	-124.601089	-0.421221	-129.394485
9.800000	-0.481744	-146.331525	-50.842539	-129.453083	-50.842539	-129.453083	-0.427073	-129.994880
9.850000	-0.488783	-147.043725	-50.967344	-134.129492	-50.967344	-134.129492	-0.433013	-130.595542
9.900000	-0.495817	-147.756356	-51.121226	-138.475300	-51.121226	-138.475300	-0.439116	-131.196764
9.950000	-0.502824	-148.469466	-51.287782	-142.648968	-51.287782	-142.648968	-0.445311	-131.798320
10.000000	-0.509802	-149.183070	-51.467468	-146.650554	-51.467468	-146.650554	-0.451599	-132.400210
