! freq	dB(S11)	phase(S11)	dB(S12)	phase(S12)	
!     	dB(S21)	phase(S21)	dB(S22)	phase(S22)	
!S-par simulation data
#  GHz  S  DB  R 50
0.000000	-0.000000	0.000000	-373.450219	0.000000	-373.450219	0.000000	-0.000000	0.000000
0.050000	-0.000127	-1.336533	-89.652251	20.406995	-89.652251	20.406995	-0.004770	-0.922634
0.100000	-0.000507	-2.672785	-89.063254	25.828435	-89.063254	25.828435	-0.005935	-1.821257
0.150000	-0.001129	-4.008483	-88.332035	32.846793	-88.332035	32.846793	-0.006430	-2.723219
0.200000	-0.001980	-5.343387	-87.506000	39.077330	-87.506000	39.077330	-0.006874	-3.626359
0.250000	-0.003056	-6.677193	-86.650224	44.143289	-86.650224	44.143289	-0.007370	-4.529806
0.300000	-0.004317	-8.009793	-85.820180	48.248506	-85.820180	48.248506	-0.007935	-5.433144
0.350000	-0.005752	-9.340964	-85.035536	51.521135	-85.035536	51.521135	-0.008576	-6.336167
0.400000	-0.007339	-10.670553	-84.307682	54.135333	-84.307682	54.135333	-0.009293	-7.238726
0.450000	-0.009053	-11.998432	-83.640415	56.239169	-83.640415	56.239169	-0.010081	-8.140712
0.500000	-0.010874	-13.324498	-83.033561	57.951953	-83.033561	57.951953	-0.010935	-9.042038
0.550000	-0.012781	-14.648673	-82.485031	59.368405	-82.485031	59.368405	-0.011850	-9.942632
0.600000	-0.014752	-15.970896	-81.991942	60.564047	-81.991942	60.564047	-0.012819	-10.842434
0.650000	-0.016771	-17.291125	-81.551193	61.600038	-81.551193	61.600038	-0.013836	-11.741391
0.700000	-0.018822	-18.609331	-81.159747	62.527069	-81.159747	62.527069	-0.014896	-12.639458
0.750000	-0.020890	-19.925494	-80.814745	63.388391	-80.814745	63.388391	-0.015992	-13.536598
0.800000	-0.022964	-21.239601	-80.513536	64.222144	-80.513536	64.222144	-0.017119	-14.432775
0.850000	-0.025035	-22.551645	-80.253644	65.063166	-80.253644	65.063166	-0.018272	-15.327962
0.900000	-0.027094	-23.861621	-80.032708	65.944418	-80.032708	65.944418	-0.019446	-16.222131
0.950000	-0.029136	-25.169524	-79.848390	66.898123	-79.848390	66.898123	-0.020636	-17.115261
1.000000	-0.031155	-26.475352	-79.698258	67.956668	-79.698258	67.956668	-0.021840	-18.007332
1.050000	-0.033148	-27.779097	-79.579638	69.153304	-79.579638	69.153304	-0.023052	-18.898324
1.100000	-0.035114	-29.080754	-79.489432	70.522600	-79.489432	70.522600	-0.024271	-19.788222
1.150000	-0.037051	-30.380312	-79.423887	72.100596	-79.423887	72.100596	-0.025493	-20.677009
1.200000	-0.038958	-31.677759	-79.378329	73.924509	-79.378329	73.924509	-0.026717	-21.564671
1.250000	-0.040836	-32.973082	-79.346853	76.031796	-79.346853	76.031796	-0.027939	-22.451193
1.300000	-0.042683	-34.266170	-79.321817	78.473612	-79.321817	78.473612	-0.029160	-23.336511
1.350000	-0.044503	-35.557097	-79.292987	81.267551	-79.292987	81.267551	-0.030377	-24.220660
1.400000	-0.046296	-36.845843	-79.248691	84.433054	-79.248691	84.433054	-0.031589	-25.103626
1.450000	-0.048064	-38.132384	-79.175383	87.972766	-79.175383	87.972766	-0.032796	-25.985396
1.500000	-0.049810	-39.416699	-79.058281	91.865740	-79.058281	91.865740	-0.033998	-26.865954
1.550000	-0.051533	-40.698763	-78.882610	96.061931	-78.882610	96.061931	-0.035193	-27.745286
1.600000	-0.053238	-41.978551	-78.635367	100.480449	-78.635367	100.480449	-0.036383	-28.623377
1.650000	-0.054925	-43.256039	-78.307293	105.013733	-78.307293	105.013733	-0.037566	-29.500211
1.700000	-0.056596	-44.531201	-77.894481	109.538124	-77.894481	109.538124	-0.038743	-30.375774
1.750000	-0.058253	-45.804014	-77.399034	113.928691	-77.399034	113.928691	-0.039915	-31.250049
1.800000	-0.059898	-47.074452	-76.828543	118.074263	-76.828543	118.074263	-0.041081	-32.123021
1.850000	-0.061532	-48.342492	-76.194579	121.888546	-76.194579	121.888546	-0.042242	-32.994672
1.900000	-0.063158	-49.608112	-75.510744	125.315102	-75.510744	125.315102	-0.043398	-33.864987
1.950000	-0.064777	-50.871289	-74.790854	128.326434	-74.790854	128.326434	-0.044551	-34.733948
2.000000	-0.066390	-52.132005	-74.047627	130.919069	-74.047627	130.919069	-0.045700	-35.601540
2.050000	-0.067999	-53.390239	-73.291942	133.107006	-73.291942	133.107006	-0.046846	-36.467744
2.100000	-0.069606	-54.645974	-72.532599	134.915339	-72.532599	134.915339	-0.047990	-37.332544
2.150000	-0.071211	-55.899194	-71.776396	136.375031	-71.776396	136.375031	-0.049132	-38.195925
2.200000	-0.072817	-57.149886	-71.028380	137.519124	-71.028380	137.519124	-0.050274	-39.057867
2.250000	-0.074423	-58.398036	-70.292158	138.380270	-70.292158	138.380270	-0.051415	-39.918357
2.300000	-0.076032	-59.643635	-69.570200	138.989270	-69.570200	138.989270	-0.052556	-40.777375
2.350000	-0.077645	-60.886674	-68.864104	139.374337	-68.864104	139.374337	-0.053698	-41.634908
2.400000	-0.079262	-62.127146	-68.174816	139.560832	-68.174816	139.560832	-0.054842	-42.490938
2.450000	-0.080885	-63.365047	-67.502807	139.571267	-67.502807	139.571267	-0.055988	-43.345450
2.500000	-0.082515	-64.600375	-66.848200	139.425473	-66.848200	139.425473	-0.057138	-44.198429
2.550000	-0.084152	-65.833017	-66.209641	139.135520	-66.209641	139.135520	-0.058290	-45.049791
2.600000	-0.085798	-67.063088	-65.588255	138.723136	-65.588255	138.723136	-0.059447	-45.899589
2.650000	-0.087454	-68.290591	-64.983618	138.201393	-64.983618	138.201393	-0.060609	-46.747809
2.700000	-0.089120	-69.515534	-64.395239	137.581739	-64.395239	137.581739	-0.061776	-47.594436
2.750000	-0.090797	-70.737926	-63.822585	136.874216	-63.822585	136.874216	-0.062949	-48.439457
2.800000	-0.092485	-71.957777	-63.265104	136.087645	-63.265104	136.087645	-0.064129	-49.282860
2.850000	-0.094187	-73.175101	-62.722240	135.229795	-62.722240	135.229795	-0.065316	-50.124632
2.900000	-0.095901	-74.389913	-62.193440	134.307524	-62.193440	134.307524	-0.066510	-50.964761
2.950000	-0.097630	-75.602231	-61.678163	133.326903	-61.678163	133.326903	-0.067713	-51.803235
3.000000	-0.099374	-76.812075	-61.175883	132.293321	-61.175883	132.293321	-0.068925	-52.640045
3.050000	-0.101133	-78.019467	-60.686093	131.211575	-60.686093	131.211575	-0.070145	-53.475179
3.100000	-0.102908	-79.224432	-60.208306	130.085946	-60.208306	130.085946	-0.071376	-54.308628
3.150000	-0.104701	-80.426995	-59.742056	128.920269	-59.742056	128.920269	-0.072617	-55.140382
3.200000	-0.106511	-81.627186	-59.286897	127.717984	-59.286897	127.717984	-0.073868	-55.970434
3.250000	-0.108339	-82.825037	-58.842404	126.482190	-58.842404	126.482190	-0.075131	-56.798774
3.300000	-0.110186	-84.020579	-58.408173	125.215680	-58.408173	125.215680	-0.076406	-57.625395
3.350000	-0.112052	-85.213848	-57.983817	123.920985	-57.983817	123.920985	-0.077692	-58.450290
3.400000	-0.113939	-86.404883	-57.568971	122.600398	-57.568971	122.600398	-0.078992	-59.273452
3.450000	-0.115846	-87.593722	-57.163285	121.256003	-57.163285	121.256003	-0.080305	-60.094877
3.500000	-0.117775	-88.780407	-56.766426	119.889699	-56.766426	119.889699	-0.081631	-60.914559
3.550000	-0.119727	-89.964982	-56.378078	118.503219	-56.378078	118.503219	-0.082971	-61.732492
3.600000	-0.121701	-91.147494	-55.997939	117.098147	-55.997939	117.098147	-0.084326	-62.548673
3.650000	-0.123698	-92.327991	-55.625720	115.675934	-55.625720	115.675934	-0.085696	-63.363099
3.700000	-0.125720	-93.506522	-55.261148	114.237913	-55.261148	114.237913	-0.087081	-64.175766
3.750000	-0.127766	-94.683140	-54.903960	112.785305	-54.903960	112.785305	-0.088482	-64.986673
3.800000	-0.129839	-95.857821	-54.553604	111.318699	-54.553604	111.318699	-0.089900	-65.795740
3.850000	-0.131939	-97.030706	-54.210169	109.839754	-54.210169	109.839754	-0.091335	-66.603043
3.900000	-0.134065	-98.201852	-53.873423	108.349413	-53.873423	108.349413	-0.092787	-67.408582
3.950000	-0.136218	-99.371322	-53.543145	106.848546	-53.543145	106.848546	-0.094256	-68.212356
4.000000	-0.138399	-100.539178	-53.219122	105.337960	-53.219122	105.337960	-0.095744	-69.014366
4.050000	-0.140610	-101.705484	-52.901151	103.818396	-52.901151	103.818396	-0.097250	-69.814614
4.100000	-0.142849	-102.870309	-52.589037	102.290541	-52.589037	102.290541	-0.098775	-70.613101
4.150000	-0.145119	-104.033721	-52.282593	100.755029	-52.282593	100.755029	-0.100319	-71.409829
4.200000	-0.147419	-105.195791	-51.981640	99.212445	-51.981640	99.212445	-0.101882	-72.204802
4.250000	-0.149751	-106.356593	-51.686003	97.663331	-51.686003	97.663331	-0.103466	-72.998021
4.300000	-0.152115	-107.516202	-51.395518	96.108187	-51.395518	96.108187	-0.105071	-73.789492
4.350000	-0.154512	-108.674695	-51.110024	94.547472	-51.110024	94.547472	-0.106696	-74.579219
4.400000	-0.156942	-109.832152	-50.829368	92.981611	-50.829368	92.981611	-0.108343	-75.367206
4.450000	-0.159406	-110.988654	-50.553402	91.410996	-50.553402	91.410996	-0.110011	-76.153460
4.500000	-0.161905	-112.144286	-50.281983	89.835985	-50.281983	89.835985	-0.111702	-76.937985
4.550000	-0.164439	-113.299133	-50.014974	88.256908	-50.014974	88.256908	-0.113415	-77.720790
4.600000	-0.167009	-114.453283	-49.752241	86.674069	-49.752241	86.674069	-0.115152	-78.501879
4.650000	-0.169616	-115.606828	-49.493657	85.087741	-49.493657	85.087741	-0.116912	-79.281262
4.700000	-0.172260	-116.759859	-49.239099	83.498178	-49.239099	83.498178	-0.118696	-80.058945
4.750000	-0.174942	-117.912471	-48.988447	81.905608	-48.988447	81.905608	-0.120504	-80.834938
4.800000	-0.177662	-119.064762	-48.741585	80.310237	-48.741585	80.310237	-0.122337	-81.609249
4.850000	-0.180422	-120.216833	-48.498402	78.712250	-48.498402	78.712250	-0.124195	-82.381888
4.900000	-0.183222	-121.368784	-48.258790	77.111816	-48.258790	77.111816	-0.126078	-83.152864
4.950000	-0.186062	-122.520722	-48.022644	75.509081	-48.022644	75.509081	-0.127988	-83.922188
5.000000	-0.188944	-123.672753	-47.789862	73.904175	-47.789862	73.904175	-0.129924	-84.689871
5.050000	-0.191869	-124.825003	-47.560225	72.297128	-47.560225	72.297128	-0.131888	-85.455853
5.100000	-0.194837	-125.977581	-47.333765	70.688128	-47.333765	70.688128	-0.133880	-86.220218
5.150000	-0.197848	-127.130603	-47.110388	69.077255	-47.110388	69.077255	-0.135899	-86.982977
5.200000	-0.200902	-128.284190	-46.890003	67.464574	-46.890003	67.464574	-0.137947	-87.744144
5.250000	-0.204002	-129.438465	-46.672522	65.850135	-46.672522	65.850135	-0.140023	-88.503730
5.300000	-0.207146	-130.593555	-46.457857	64.233975	-46.457857	64.233975	-0.142128	-89.261751
5.350000	-0.210337	-131.749590	-46.245924	62.616116	-46.245924	62.616116	-0.144262	-90.018219
5.400000	-0.213574	-132.906704	-46.036640	60.996569	-46.036640	60.996569	-0.146427	-90.773149
5.450000	-0.216859	-134.065036	-45.829923	59.375330	-45.829923	59.375330	-0.148622	-91.526555
5.500000	-0.220192	-135.224729	-45.625694	57.752380	-45.625694	57.752380	-0.150847	-92.278453
5.550000	-0.223573	-136.385932	-45.423872	56.127691	-45.423872	56.127691	-0.153104	-93.028857
5.600000	-0.227005	-137.548796	-45.224378	54.501217	-45.224378	54.501217	-0.155392	-93.777784
5.650000	-0.230487	-138.713480	-45.027135	52.872902	-45.027135	52.872902	-0.157713	-94.525249
5.700000	-0.234021	-139.880150	-44.832065	51.242672	-44.832065	51.242672	-0.160066	-95.271270
5.750000	-0.237607	-141.048977	-44.639088	49.610440	-44.639088	49.610440	-0.162451	-96.015864
5.800000	-0.241248	-142.220138	-44.448128	47.976103	-44.448128	47.976103	-0.164870	-96.759047
5.850000	-0.244943	-143.393821	-44.259102	46.339541	-44.259102	46.339541	-0.167323	-97.500837
5.900000	-0.248694	-144.570220	-44.071932	44.700616	-44.071932	44.700616	-0.169810	-98.241252
5.950000	-0.252503	-145.749540	-43.886532	43.059170	-43.886532	43.059170	-0.172331	-98.980311
6.000000	-0.256371	-146.931997	-43.702819	41.415023	-43.702819	41.415023	-0.174888	-99.718032
6.050000	-0.260300	-148.117818	-43.520704	39.767972	-43.520704	39.767972	-0.177480	-100.454435
6.100000	-0.264293	-149.307245	-43.340094	38.117787	-43.340094	38.117787	-0.180107	-101.189539
6.150000	-0.268350	-150.500532	-43.160893	36.464208	-43.160893	36.464208	-0.182771	-101.923363
6.200000	-0.272476	-151.697953	-42.982999	34.806941	-42.982999	34.806941	-0.185471	-102.655929
6.250000	-0.276673	-152.899801	-42.806303	33.145655	-42.806303	33.145655	-0.188208	-103.387256
6.300000	-0.280947	-154.106612	-42.630577	31.479763	-42.630577	31.479763	-0.190984	-104.117313
6.350000	-0.285301	-155.318538	-42.455798	29.809006	-42.455798	29.809006	-0.193798	-104.846175
6.400000	-0.289739	-156.535953	-42.281828	28.132888	-42.281828	28.132888	-0.196650	-105.573865
6.450000	-0.294266	-157.759266	-42.108515	26.450845	-42.108515	26.450845	-0.199540	-106.300404
6.500000	-0.298890	-158.988926	-41.935690	24.762230	-41.935690	24.762230	-0.202470	-107.025815
6.550000	-0.303620	-160.225432	-41.763169	23.066295	-41.763169	23.066295	-0.205438	-107.750120
6.600000	-0.308464	-161.469338	-41.590741	21.362178	-41.590741	21.362178	-0.208446	-108.473342
6.650000	-0.313435	-162.721267	-41.418173	19.648876	-41.418173	19.648876	-0.211494	-109.195506
6.700000	-0.318532	-163.980919	-41.245635	17.926445	-41.245635	17.926445	-0.214577	-109.916742
6.750000	-0.323808	-165.251335	-41.071843	16.190796	-41.071843	16.190796	-0.217706	-110.636828
6.800000	-0.329261	-166.531842	-40.897147	14.442248	-40.897147	14.442248	-0.220875	-111.355962
6.850000	-0.334915	-167.823367	-40.721196	12.679083	-40.721196	12.679083	-0.224082	-112.074173
6.900000	-0.340835	-169.128768	-40.542818	10.896769	-40.542818	10.896769	-0.227334	-112.791368
6.950000	-0.347025	-170.447330	-40.362406	9.095564	-40.362406	9.095564	-0.230625	-113.507725
7.000000	-0.353577	-171.782471	-40.178567	7.269625	-40.178567	7.269625	-0.233957	-114.223171
7.050000	-0.360560	-173.135942	-39.990674	5.415262	-39.990674	5.415262	-0.237332	-114.937758
7.100000	-0.368026	-174.508462	-39.798583	3.530265	-39.798583	3.530265	-0.240745	-115.651588
7.150000	-0.376229	-175.907671	-39.599177	1.600643	-39.599177	1.600643	-0.244203	-116.364542
7.200000	-0.385232	-177.333158	-39.392965	-0.374588	-39.392965	-0.374588	-0.247699	-117.076795
7.250000	-0.395329	-178.791487	-39.177504	-2.408810	-39.177504	-2.408810	-0.251235	-117.788340
7.300000	-0.406990	179.707928	-38.949344	-4.521632	-38.949344	-4.521632	-0.254813	-118.499175
7.350000	-0.420513	178.162230	-38.708131	-6.721199	-38.708131	-6.721199	-0.258427	-119.209433
7.400000	-0.436917	176.554114	-38.447762	-9.044672	-38.447762	-9.044672	-0.262079	-119.919103
7.450000	-0.457423	174.867890	-38.163611	-11.528458	-38.163611	-11.528458	-0.265769	-120.628269
7.500000	-0.483987	173.080956	-37.849332	-14.225940	-37.849332	-14.225940	-0.269493	-121.337030
7.550000	-0.520258	171.155438	-37.494466	-17.228242	-37.494466	-17.228242	-0.273251	-122.045503
7.600000	-0.572574	169.037756	-37.086021	-20.671451	-37.086021	-20.671451	-0.277042	-122.753880
7.650000	-0.652299	166.651286	-36.608280	-24.764414	-36.608280	-24.764414	-0.280872	-123.462444
7.700000	-0.786015	163.853165	-36.033896	-29.933907	-36.033896	-29.933907	-0.284761	-124.171698
7.750000	-1.033654	160.446270	-35.338026	-36.945244	-35.338026	-36.945244	-0.288787	-124.882503
7.800000	-1.555171	156.260563	-34.525163	-47.393080	-34.525163	-47.393080	-0.293216	-125.596242
7.850000	-2.792877	152.412457	-33.809484	-64.556017	-33.809484	-64.556017	-0.298919	-126.313238
7.900000	-5.063548	159.345492	-34.287024	-92.393991	-34.287024	-92.393991	-0.307217	-127.020934
7.950000	-4.317778	179.077498	-38.050225	-123.927427	-38.050225	-123.927427	-0.314528	-127.699524
8.000000	-2.359930	-179.788060	-45.555118	-142.445351	-45.555118	-142.445351	-0.317907	-128.380261
8.050000	-1.466828	176.219298	-60.190809	-110.686617	-60.190809	-110.686617	-0.320702	-129.074425
8.100000	-1.068670	172.486544	-52.458677	-13.402534	-52.458677	-13.402534	-0.323983	-129.774171
8.150000	-0.868220	169.386669	-47.631529	-11.299747	-47.631529	-11.299747	-0.327687	-130.475628
8.200000	-0.756868	166.755505	-45.342549	-13.552928	-45.342549	-13.552928	-0.331680	-131.177525
8.250000	-0.689308	164.430984	-43.957834	-16.225330	-43.957834	-16.225330	-0.335869	-131.879448
8.300000	-0.646486	162.317476	-43.017461	-18.828346	-43.017461	-18.828346	-0.340206	-132.581272
8.350000	-0.618668	160.353071	-42.331892	-21.279624	-42.331892	-21.279624	-0.344662	-133.282965
8.400000	-0.599758	158.487872	-41.798487	-23.594127	-41.798487	-23.594127	-0.349212	-133.984546
8.450000	-0.586972	156.696730	-41.369462	-25.789095	-41.369462	-25.789095	-0.353847	-134.686040
8.500000	-0.578400	154.959829	-41.013850	-27.885300	-41.013850	-27.885300	-0.358558	-135.387480
8.550000	-0.572906	153.264206	-40.713256	-29.897566	-40.713256	-29.897566	-0.363344	-136.088905
8.600000	-0.569476	151.596718	-40.451568	-31.846446	-40.451568	-31.846446	-0.368192	-136.790349
8.650000	-0.567692	149.951537	-40.221697	-33.739080	-40.221697	-33.739080	-0.373105	-137.491850
8.700000	-0.567161	148.322740	-40.017128	-35.584380	-40.017128	-35.584380	-0.378080	-138.193445
8.750000	-0.567597	146.705745	-39.833095	-37.389422	-39.833095	-37.389422	-0.383115	-138.895173
8.800000	-0.568819	145.097169	-39.666513	-39.158570	-39.666513	-39.158570	-0.388212	-139.597080
8.850000	-0.570634	143.493708	-39.514028	-40.898002	-39.514028	-40.898002	-0.393367	-140.299199
8.900000	-0.572925	141.893096	-39.373569	-42.611329	-39.373569	-42.611329	-0.398579	-141.001567
8.950000	-0.575603	140.293471	-39.243496	-44.301513	-39.243496	-44.301513	-0.403849	-141.704224
9.000000	-0.578595	138.693292	-39.122492	-45.971004	-39.122492	-45.971004	-0.409174	-142.407206
9.050000	-0.581845	137.091269	-39.009491	-47.621840	-39.009491	-47.621840	-0.414556	-143.110554
9.100000	-0.585307	135.486313	-38.903616	-49.255726	-38.903616	-49.255726	-0.419994	-143.814306
9.150000	-0.588941	133.877505	-38.804141	-50.874097	-38.804141	-50.874097	-0.425487	-144.518500
9.200000	-0.592716	132.264055	-38.710458	-52.478167	-38.710458	-52.478167	-0.431034	-145.223177
9.250000	-0.596605	130.645292	-38.622056	-54.068966	-38.622056	-54.068966	-0.436637	-145.928376
9.300000	-0.600587	129.020634	-38.538501	-55.647374	-38.538501	-55.647374	-0.442294	-146.634137
9.350000	-0.604641	127.389583	-38.459421	-57.214144	-38.459421	-57.214144	-0.448006	-147.340502
9.400000	-0.608751	125.751707	-38.384495	-58.769922	-38.384495	-58.769922	-0.453772	-148.047510
9.450000	-0.612903	124.106637	-38.313447	-60.315266	-38.313447	-60.315266	-0.459591	-148.755203
9.500000	-0.617083	122.454052	-38.246034	-61.850657	-38.246034	-61.850657	-0.465464	-149.463623
9.550000	-0.621282	120.793681	-38.182046	-63.376512	-38.182046	-63.376512	-0.471391	-150.172811
9.600000	-0.625487	119.125292	-38.121294	-64.893191	-38.121294	-64.893191	-0.477370	-150.882812
9.650000	-0.629691	117.448693	-38.063613	-66.401009	-38.063613	-66.401009	-0.483403	-151.593666
9.700000	-0.633886	115.763723	-38.008857	-67.900237	-38.008857	-67.900237	-0.489488	-152.305418
9.750000	-0.638064	114.070255	-37.956893	-69.391114	-37.956893	-69.391114	-0.495625	-153.018112
9.800000	-0.642219	112.368191	-37.907604	-70.873844	-37.907604	-70.873844	-0.501814	-153.731792
9.850000	-0.646345	110.657460	-37.860883	-72.348609	-37.860883	-72.348609	-0.508055	-154.446502
9.900000	-0.650437	108.938018	-37.816633	-73.815562	-37.816633	-73.815562	-0.514347	-155.162289
9.950000	-0.654489	107.209846	-37.774767	-75.274841	-37.774767	-75.274841	-0.520689	-155.879199
10.000000	-0.658498	105.472947	-37.735204	-76.726562	-37.735204	-76.726562	-0.527083	-156.597276
