! freq	dB(S11)	phase(S11)	dB(S12)	phase(S12)	
!     	dB(S21)	phase(S21)	dB(S22)	phase(S22)	
!S-par simulation data
#  GHz  S  DB  R 50
0.000000	-0.000000	0.000000	-348.101593	180.000000	-348.101593	180.000000	-0.000000	-0.000000
0.050000	-0.000478	-0.947247	-92.938560	87.117144	-92.938560	87.117144	-0.001397	-3.708965
0.100000	-0.001672	-1.891137	-86.950949	85.149861	-86.950949	85.149861	-0.005262	-7.413824
0.150000	-0.003138	-2.830845	-83.476644	82.990864	-83.476644	82.990864	-0.010810	-11.110834
0.200000	-0.004587	-3.767296	-81.043477	80.794822	-81.043477	80.794822	-0.017219	-14.796889
0.250000	-0.005922	-4.701722	-79.189560	78.597495	-79.189560	78.597495	-0.023836	-18.469868
0.300000	-0.007146	-5.634957	-77.711599	76.415339	-77.711599	76.415339	-0.030242	-22.127825
0.350000	-0.008307	-6.567561	-76.493449	74.255552	-76.493449	74.255552	-0.036289	-25.771763
0.400000	-0.009432	-7.499661	-75.478555	72.130649	-75.478555	72.130649	-0.041858	-29.398542
0.450000	-0.010554	-8.431423	-74.615196	70.041836	-74.615196	70.041836	-0.047045	-33.010352
0.500000	-0.011690	-9.362813	-73.883772	68.003552	-73.883772	68.003552	-0.051833	-36.603718
0.550000	-0.012850	-10.293842	-73.260716	66.021703	-73.260716	66.021703	-0.056313	-40.178770
0.600000	-0.014036	-11.224483	-72.731398	64.105520	-72.731398	64.105520	-0.060544	-43.734543
0.650000	-0.015245	-12.154692	-72.284909	62.265323	-72.284909	62.265323	-0.064578	-47.270057
0.700000	-0.016471	-13.084413	-71.912970	60.512816	-71.912970	60.512816	-0.068458	-50.784350
0.750000	-0.017705	-14.013574	-71.609213	58.861420	-71.609213	58.861420	-0.072217	-54.276509
0.800000	-0.018939	-14.942085	-71.368684	57.326676	-71.368684	57.326676	-0.075883	-57.745685
0.850000	-0.020165	-15.869822	-71.189294	55.931987	-71.189294	55.931987	-0.079471	-61.190285
0.900000	-0.021378	-16.796722	-71.064835	54.691071	-71.064835	54.691071	-0.083000	-64.610989
0.950000	-0.022577	-17.722670	-70.993938	53.632408	-70.993938	53.632408	-0.086478	-68.006673
1.000000	-0.023760	-18.647574	-70.974287	52.786231	-70.974287	52.786231	-0.089910	-71.376856
1.050000	-0.024930	-19.571356	-71.003597	52.188555	-71.003597	52.188555	-0.093302	-74.721152
1.100000	-0.026089	-20.493954	-71.079301	51.882240	-71.079301	51.882240	-0.096654	-78.039274
1.150000	-0.027240	-21.415316	-71.198129	51.918036	-71.198129	51.918036	-0.099967	-81.331030
1.200000	-0.028386	-22.335406	-71.355536	52.355323	-71.355536	52.355323	-0.103240	-84.596321
1.250000	-0.029530	-23.254197	-71.544924	53.262062	-71.544924	53.262062	-0.106471	-87.835136
1.300000	-0.030673	-24.171637	-71.756658	54.726624	-71.756658	54.726624	-0.109658	-91.046977
1.350000	-0.031818	-25.087737	-71.975787	56.815002	-71.975787	56.815002	-0.112799	-94.232580
1.400000	-0.032965	-26.002485	-72.182318	59.593209	-72.182318	59.593209	-0.115892	-97.392180
1.450000	-0.034114	-26.915868	-72.349887	63.098456	-72.349887	63.098456	-0.118934	-100.526080
1.500000	-0.035265	-27.827872	-72.446571	67.313508	-72.446571	67.313508	-0.121924	-103.634653
1.550000	-0.036420	-28.738487	-72.438349	72.140471	-72.438349	72.140471	-0.124859	-106.718328
1.600000	-0.037577	-29.647699	-72.295587	77.387867	-72.295587	77.387867	-0.127739	-109.777593
1.650000	-0.038736	-30.555497	-72.000841	82.786699	-72.000841	82.786699	-0.130561	-112.812986
1.700000	-0.039896	-31.461866	-71.554277	88.038806	-71.554277	88.038806	-0.133324	-115.825092
1.750000	-0.041059	-32.366792	-70.973403	92.879179	-70.973403	92.879179	-0.136029	-118.814538
1.800000	-0.042223	-33.270261	-70.287273	97.122765	-70.287273	97.122765	-0.138674	-121.781989
1.850000	-0.043388	-34.172259	-69.528639	100.678333	-69.528639	100.678333	-0.141261	-124.728144
1.900000	-0.044554	-35.072753	-68.726647	103.526723	-68.726647	103.526723	-0.143788	-127.653518
1.950000	-0.045721	-35.971728	-67.906197	105.710667	-67.906197	105.710667	-0.146256	-130.558892
2.000000	-0.046889	-36.869184	-67.086234	107.305824	-67.086234	107.305824	-0.148668	-133.445269
2.050000	-0.048059	-37.765105	-66.278830	108.387949	-66.278830	108.387949	-0.151024	-136.313448
2.100000	-0.049229	-38.659476	-65.491692	109.030589	-65.491692	109.030589	-0.153327	-139.164246
2.150000	-0.050400	-39.552280	-64.729377	109.300284	-64.729377	109.300284	-0.155578	-141.998490
2.200000	-0.051574	-40.443502	-63.994270	109.254900	-63.994270	109.254900	-0.157780	-144.817021
2.250000	-0.052748	-41.333127	-63.287321	108.943625	-63.287321	108.943625	-0.159935	-147.620686
2.300000	-0.053925	-42.221138	-62.608552	108.407744	-62.608552	108.407744	-0.162046	-150.410339
2.350000	-0.055105	-43.107520	-61.957411	107.681684	-61.957411	107.681684	-0.164117	-153.186839
2.400000	-0.056287	-43.992259	-61.333008	106.794080	-61.333008	106.794080	-0.166149	-155.951045
2.450000	-0.057472	-44.875339	-60.734266	105.768746	-60.734266	105.768746	-0.168146	-158.703817
2.500000	-0.058661	-45.756746	-60.160026	104.625522	-60.160026	104.625522	-0.170113	-161.446015
2.550000	-0.059854	-46.636428	-59.608863	103.379095	-59.608863	103.379095	-0.172051	-164.178300
2.600000	-0.061052	-47.514409	-59.079932	102.045746	-59.079932	102.045746	-0.173965	-166.901754
2.650000	-0.062254	-48.390676	-58.572105	100.637022	-58.572105	100.637022	-0.175859	-169.617222
2.700000	-0.063462	-49.265214	-58.084315	99.162677	-58.084315	99.162677	-0.177736	-172.325539
2.750000	-0.064676	-50.138013	-57.615563	97.630986	-57.615563	97.630986	-0.179601	-175.027533
2.800000	-0.065896	-51.009059	-57.164916	96.048995	-57.164916	96.048995	-0.181457	-177.724024
2.850000	-0.067124	-51.878341	-56.731508	94.422727	-56.731508	94.422727	-0.183308	179.584182
2.900000	-0.068358	-52.745849	-56.314539	92.757357	-56.314539	92.757357	-0.185158	176.896288
2.950000	-0.069601	-53.611572	-55.913271	91.057345	-55.913271	91.057345	-0.187011	174.211511
3.000000	-0.070852	-54.475500	-55.527024	89.326559	-55.527024	89.326559	-0.188870	171.529081
3.050000	-0.072112	-55.337624	-55.155171	87.568369	-55.155171	87.568369	-0.190740	168.848243
3.100000	-0.073382	-56.197935	-54.797139	85.785727	-54.797139	85.785727	-0.192623	166.168257
3.150000	-0.074662	-57.056405	-54.452396	83.981027	-54.452396	83.981027	-0.194524	163.488392
3.200000	-0.075953	-57.913026	-54.120477	82.156652	-54.120477	82.156652	-0.196446	160.807917
3.250000	-0.077254	-58.767811	-53.800948	80.314898	-53.800948	80.314898	-0.198393	158.126142
3.300000	-0.078567	-59.620754	-53.493401	78.457626	-53.493401	78.457626	-0.200367	155.442396
3.350000	-0.079893	-60.471848	-53.197467	76.586539	-53.197467	76.586539	-0.202371	152.756028
3.400000	-0.081231	-61.321089	-52.912808	74.703206	-52.912808	74.703206	-0.204409	150.066407
3.450000	-0.082582	-62.168473	-52.639118	72.809095	-52.639118	72.809095	-0.206483	147.372920
3.500000	-0.083947	-63.013995	-52.376119	70.905588	-52.376119	70.905588	-0.208596	144.674976
3.550000	-0.085325	-63.857652	-52.123561	68.994011	-52.123561	68.994011	-0.210750	141.972008
3.600000	-0.086719	-64.699441	-51.881217	67.075640	-51.881217	67.075640	-0.212947	139.263468
3.650000	-0.088127	-65.539361	-51.648887	65.151727	-51.648887	65.151727	-0.215190	136.548831
3.700000	-0.089551	-66.377410	-51.426389	63.223505	-51.426389	63.223505	-0.217479	133.827597
3.750000	-0.090992	-67.213587	-51.213562	61.292206	-51.213562	61.292206	-0.219816	131.099289
3.800000	-0.092449	-68.047852	-51.010374	59.359060	-51.010374	59.359060	-0.222205	128.363279
3.850000	-0.093923	-68.880245	-50.816607	57.425394	-50.816607	57.425394	-0.224644	125.619296
3.900000	-0.095415	-69.710768	-50.632154	55.492499	-50.632154	55.492499	-0.227135	122.866938
3.950000	-0.096924	-70.539423	-50.456921	53.561700	-50.456921	53.561700	-0.229678	120.105829
4.000000	-0.098453	-71.366212	-50.290828	51.634373	-50.290828	51.634373	-0.232274	117.335619
4.050000	-0.100000	-72.191138	-50.133808	49.711946	-50.133808	49.711946	-0.234924	114.555985
4.100000	-0.101566	-73.014205	-49.985804	47.795909	-49.985804	47.795909	-0.237626	111.766627
4.150000	-0.103153	-73.835417	-49.846768	45.887826	-49.846768	45.887826	-0.240382	108.967274
4.200000	-0.104760	-74.654778	-49.716661	43.989338	-49.716661	43.989338	-0.243192	106.157681
4.250000	-0.106388	-75.472295	-49.595452	42.102172	-49.595452	42.102172	-0.246054	103.337627
4.300000	-0.108037	-76.287973	-49.483113	40.228155	-49.483113	40.228155	-0.248969	100.506919
4.350000	-0.109708	-77.101819	-49.379621	38.369216	-49.379621	38.369216	-0.251937	97.665388
4.400000	-0.111401	-77.913820	-49.285041	36.527608	-49.285041	36.527608	-0.254957	94.812769
4.450000	-0.113117	-78.723984	-49.199360	34.705577	-49.199360	34.705577	-0.258030	91.948941
4.500000	-0.114857	-79.532340	-49.122469	32.905250	-49.122469	32.905250	-0.261155	89.073927
4.550000	-0.116620	-80.338897	-49.054343	31.129082	-49.054343	31.129082	-0.264332	86.187656
4.600000	-0.118407	-81.143663	-48.994950	29.379687	-48.994950	29.379687	-0.267562	83.290078
4.650000	-0.120219	-81.946650	-48.944249	27.659848	-48.944249	27.659848	-0.270845	80.381164
4.700000	-0.122056	-82.747867	-48.902188	25.972529	-48.902188	25.972529	-0.274182	77.460901
4.750000	-0.123918	-83.547327	-48.868701	24.320886	-48.868701	24.320886	-0.277574	74.529297
4.800000	-0.125806	-84.345040	-48.843702	22.708285	-48.843702	22.708285	-0.281024	71.586372
4.850000	-0.127720	-85.141019	-48.827084	21.138307	-48.827084	21.138307	-0.284534	68.632163
4.900000	-0.129661	-85.935277	-48.818710	19.614770	-48.818710	19.614770	-0.288107	65.666717
4.950000	-0.131630	-86.727827	-48.818411	18.141730	-48.818411	18.141730	-0.291746	62.690089
5.000000	-0.133626	-87.518682	-48.825975	16.723498	-48.825975	16.723498	-0.295457	59.702343
5.050000	-0.135650	-88.307821	-48.841299	15.366046	-48.841299	15.366046	-0.299246	56.703307
5.100000	-0.137704	-89.095296	-48.863888	14.073032	-48.863888	14.073032	-0.303119	53.693290
5.150000	-0.139786	-89.881122	-48.893351	12.849560	-48.893351	12.849560	-0.307082	50.672357
5.200000	-0.141898	-90.665314	-48.929211	11.700972	-48.929211	11.700972	-0.311143	47.640567
5.250000	-0.144040	-91.447889	-48.970901	10.632827	-48.970901	10.632827	-0.315313	44.597971
5.300000	-0.146213	-92.228865	-49.017740	9.650856	-49.017740	9.650856	-0.319601	41.544602
5.350000	-0.148416	-93.008257	-49.068923	8.760898	-49.068923	8.760898	-0.324019	38.480481
5.400000	-0.150650	-93.786083	-49.123502	7.968819	-49.123502	7.968819	-0.328579	35.405603
5.450000	-0.152916	-94.562363	-49.180367	7.280385	-49.180367	7.280385	-0.333296	32.319937
5.500000	-0.155215	-95.337114	-49.238230	6.701117	-49.238230	6.701117	-0.338184	29.223420
5.550000	-0.157546	-96.110356	-49.295612	6.236085	-49.295612	6.236085	-0.343260	26.115952
5.600000	-0.159910	-96.882108	-49.350827	5.889673	-49.350827	5.889673	-0.348541	22.997391
5.650000	-0.162307	-97.652374	-49.401912	5.666635	-49.401912	5.666635	-0.354048	19.867419
5.700000	-0.164740	-98.421175	-49.446689	5.569069	-49.446689	5.569069	-0.359803	16.725779
5.750000	-0.167206	-99.188548	-49.482904	5.595903	-49.482904	5.595903	-0.365824	13.572279
5.800000	-0.169707	-99.954515	-49.508097	5.745278	-49.508097	5.745278	-0.372135	10.406537
5.850000	-0.172244	-100.719097	-49.519699	6.012839	-49.519699	6.012839	-0.378758	7.228091
5.900000	-0.174816	-101.482316	-49.515106	6.391408	-49.515106	6.391408	-0.385721	4.036395
5.950000	-0.177425	-102.244194	-49.491761	6.870752	-49.491761	6.870752	-0.393049	0.830810
6.000000	-0.180070	-103.004755	-49.447263	7.437493	-49.447263	7.437493	-0.400773	-2.389409
6.050000	-0.182751	-103.764021	-49.379476	8.075200	-49.379476	8.075200	-0.408921	-5.625118
6.100000	-0.185471	-104.522017	-49.286647	8.764703	-49.286647	8.764703	-0.417526	-8.877297
6.150000	-0.188228	-105.278766	-49.167500	9.484622	-49.167500	9.484622	-0.426622	-12.147062
6.200000	-0.191023	-106.034293	-49.021318	10.212082	-49.021318	10.212082	-0.436246	-15.435672
6.250000	-0.193857	-106.788623	-48.847986	10.923577	-48.847986	10.923577	-0.446434	-18.744550
6.300000	-0.196731	-107.541755	-48.647327	11.594518	-48.647327	11.594518	-0.457243	-22.075806
6.350000	-0.199645	-108.293742	-48.421087	12.203310	-48.421087	12.203310	-0.468705	-25.430798
6.400000	-0.202598	-109.044610	-48.170861	12.730019	-48.170861	12.730019	-0.480865	-28.811528
6.450000	-0.205592	-109.794385	-47.898641	13.157267	-47.898641	13.157267	-0.493776	-32.220224
6.500000	-0.208626	-110.543093	-47.606709	13.470579	-47.606709	13.470579	-0.507491	-35.659355
6.550000	-0.211702	-111.290762	-47.297523	13.658500	-47.297523	13.658500	-0.522069	-39.131656
6.600000	-0.214819	-112.037419	-46.973610	13.712531	-46.973610	13.712531	-0.537575	-42.640145
6.650000	-0.217978	-112.783092	-46.637481	13.626913	-46.637481	13.626913	-0.554076	-46.188156
6.700000	-0.221180	-113.527809	-46.291553	13.398298	-46.291553	13.398298	-0.571647	-49.779356
6.750000	-0.224424	-114.271599	-45.938105	13.025374	-45.938105	13.025374	-0.590370	-53.417783
6.800000	-0.227711	-115.014490	-45.579239	12.508467	-45.579239	12.508467	-0.610333	-57.107870
6.850000	-0.231042	-115.756512	-45.216869	11.849150	-45.216869	11.849150	-0.631631	-60.854488
6.900000	-0.234416	-116.497686	-44.852545	11.048405	-44.852545	11.048405	-0.654385	-64.663711
6.950000	-0.237836	-117.238043	-44.487848	10.109398	-44.487848	10.109398	-0.678710	-68.541607
7.000000	-0.241300	-117.977623	-44.124320	9.037023	-44.124320	9.037023	-0.704714	-72.493946
7.050000	-0.244809	-118.716456	-43.763168	7.834734	-43.763168	7.834734	-0.732528	-76.527770
7.100000	-0.248363	-119.454573	-43.405469	6.505900	-43.405469	6.505900	-0.762293	-80.650767
7.150000	-0.251963	-120.192008	-43.052193	5.053672	-43.052193	5.053672	-0.794158	-84.871321
7.200000	-0.255609	-120.928791	-42.704230	3.480891	-42.704230	3.480891	-0.828281	-89.198554
7.250000	-0.259301	-121.664957	-42.362415	1.790024	-42.362415	1.790024	-0.864827	-93.642373
7.300000	-0.263039	-122.400550	-42.027656	-0.014389	-42.027656	-0.014389	-0.903908	-98.210458
7.350000	-0.266825	-123.135577	-41.700494	-1.936322	-41.700494	-1.936322	-0.945819	-102.921020
7.400000	-0.270659	-123.870090	-41.381916	-3.971416	-41.381916	-3.971416	-0.990657	-107.783031
7.450000	-0.274541	-124.604125	-41.072789	-6.118839	-41.072789	-6.118839	-1.038575	-112.809790
7.500000	-0.278471	-125.337719	-40.774048	-8.378075	-40.774048	-8.378075	-1.089704	-118.015395
7.550000	-0.282452	-126.070908	-40.486766	-10.750050	-40.486766	-10.750050	-1.144172	-123.416942
7.600000	-0.286485	-126.803735	-40.212108	-13.233370	-40.212108	-13.233370	-1.201986	-129.027880
7.650000	-0.290573	-127.536240	-39.951384	-15.827795	-39.951384	-15.827795	-1.263111	-134.863910
7.700000	-0.294720	-128.268452	-39.706075	-18.532815	-39.706075	-18.532815	-1.327408	-140.940701
7.750000	-0.298932	-129.000384	-39.477855	-21.347392	-39.477855	-21.347392	-1.394605	-147.273420
7.800000	-0.303214	-129.732007	-39.268606	-24.269647	-39.268606	-24.269647	-1.464260	-153.876104
7.850000	-0.307562	-130.463253	-39.080587	-27.297298	-39.080587	-27.297298	-1.535726	-160.763234
7.900000	-0.311958	-131.194092	-38.916072	-30.424924	-38.916072	-30.424924	-1.608087	-167.942501
7.950000	-0.316380	-131.924621	-38.777534	-33.645282	-38.777534	-33.645282	-1.680169	-175.418031
8.000000	-0.320821	-132.655016	-38.667652	-36.948746	-38.667652	-36.948746	-1.750521	176.810748
8.050000	-0.325292	-133.385414	-38.589214	-40.322507	-38.589214	-40.322507	-1.817427	168.751247
8.100000	-0.329803	-134.115875	-38.545038	-43.750084	-38.545038	-43.750084	-1.878956	160.418995
8.150000	-0.334362	-134.846423	-38.538083	-47.210966	-38.538083	-47.210966	-1.933005	151.837497
8.200000	-0.338974	-135.577072	-38.570926	-50.679743	-38.570926	-50.679743	-1.977512	143.041837
8.250000	-0.343638	-136.307842	-38.645542	-54.126727	-38.645542	-54.126727	-2.010689	134.077482
8.300000	-0.348357	-137.038758	-38.763602	-57.518102	-38.763602	-57.518102	-2.031085	124.996895
8.350000	-0.353129	-137.769849	-38.926127	-60.816097	-38.926127	-60.816097	-2.037794	115.858893
8.400000	-0.357955	-138.501148	-39.133340	-63.979542	-39.133340	-63.979542	-2.030573	106.725904
8.450000	-0.362834	-139.232693	-39.384634	-66.963982	-39.384634	-66.963982	-2.009840	97.661121
8.500000	-0.367766	-139.964520	-39.678375	-69.721855	-39.678375	-69.721855	-1.976658	88.726024
8.550000	-0.372752	-140.696665	-40.011327	-72.207996	-40.011327	-72.207996	-1.932785	79.974088
8.600000	-0.377791	-141.429168	-40.379332	-74.375907	-40.379332	-74.375907	-1.880220	71.451358
8.650000	-0.382883	-142.162066	-40.776884	-76.180322	-40.776884	-76.180322	-1.821118	63.194646
8.700000	-0.388029	-142.895399	-41.197004	-77.578617	-41.197004	-77.578617	-1.757619	55.231148
8.750000	-0.393229	-143.629208	-41.631103	-78.532729	-41.631103	-78.532729	-1.691709	47.578801
8.800000	-0.398484	-144.363538	-42.068539	-79.006427	-42.068539	-79.006427	-1.625131	40.250693
8.850000	-0.403794	-145.098427	-42.497324	-78.985084	-42.497324	-78.985084	-1.559348	33.245639
8.900000	-0.409160	-145.833917	-42.903858	-78.464972	-42.903858	-78.464972	-1.495492	26.560096
8.950000	-0.414582	-146.570053	-43.273511	-77.463172	-43.273511	-77.463172	-1.434401	20.186086
9.000000	-0.420063	-147.306880	-43.591564	-76.021971	-43.591564	-76.021971	-1.376662	14.112396
9.050000	-0.425602	-148.044448	-43.844571	-74.210896	-43.844571	-74.210896	-1.322649	8.325604
9.100000	-0.431201	-148.782815	-44.021262	-72.123311	-44.021262	-72.123311	-1.272591	2.813008
9.150000	-0.436861	-149.522030	-44.115851	-69.875030	-44.115851	-69.875030	-1.226536	-2.442577
9.200000	-0.442582	-150.262144	-44.127892	-67.585257	-44.127892	-67.585257	-1.184423	-7.458425
9.250000	-0.448365	-151.003228	-44.060437	-65.366710	-44.060437	-65.366710	-1.146197	-12.247021
9.300000	-0.454209	-151.745333	-43.922509	-63.312907	-43.922509	-63.312907	-1.111669	-16.825600
9.350000	-0.460112	-152.488520	-43.724912	-61.492286	-43.724912	-61.492286	-1.080657	-21.208485
9.400000	-0.466075	-153.232846	-43.479434	-59.947524	-43.479434	-59.947524	-1.052964	-25.409248
9.450000	-0.472095	-153.978371	-43.197541	-58.698365	-43.197541	-58.698365	-1.028387	-29.440647
9.500000	-0.478171	-154.725150	-42.889523	-57.746586	-42.889523	-57.746586	-1.006721	-33.314612
9.550000	-0.484299	-155.473234	-42.564075	-57.081431	-42.564075	-57.081431	-0.987769	-37.042242
9.600000	-0.490482	-156.222765	-42.227077	-56.699840	-42.227077	-56.699840	-0.971490	-40.625906
9.650000	-0.496710	-156.973566	-41.886944	-56.539718	-41.886944	-56.539718	-0.957330	-44.095483
9.700000	-0.502989	-157.725942	-41.544774	-56.619403	-41.544774	-56.619403	-0.945527	-47.437858
9.750000	-0.509312	-158.479740	-41.205331	-56.887027	-41.205331	-56.887027	-0.935642	-50.676622
9.800000	-0.515682	-159.235125	-40.869876	-57.335769	-40.869876	-57.335769	-0.927686	-53.810985
9.850000	-0.522095	-159.992115	-40.539998	-57.942781	-40.539998	-57.942781	-0.921493	-56.849740
9.900000	-0.528551	-160.750694	-40.216847	-58.685011	-40.216847	-58.685011	-0.916880	-59.802733
9.950000	-0.535051	-161.511076	-39.900473	-59.559919	-39.900473	-59.559919	-0.913890	-62.667541
10.000000	-0.541590	-162.273044	-39.591801	-60.536283	-39.591801	-60.536283	-0.912199	-65.461832
