! freq	dB(S11)	phase(S11)	dB(S12)	phase(S12)	
!     	dB(S21)	phase(S21)	dB(S22)	phase(S22)	
!S-par simulation data
#  GHz  S  DB  R 50
0.000000	-0.000000	0.000000	-365.771653	0.000000	-365.771653	0.000000	-0.000000	0.000000
0.050000	-0.000106	-0.761159	-104.412611	24.073600	-104.412611	24.073600	-0.000106	-0.761146
0.100000	-0.000419	-1.522044	-103.775856	27.737707	-103.775856	27.737707	-0.000418	-1.522018
0.150000	-0.000929	-2.282383	-103.083031	34.145556	-103.083031	34.145556	-0.000927	-2.282349
0.200000	-0.001601	-3.042025	-102.334462	40.106035	-102.334462	40.106035	-0.001597	-3.041984
0.250000	-0.002413	-3.800799	-101.587904	45.131607	-101.587904	45.131607	-0.002408	-3.800755
0.300000	-0.003349	-4.558506	-100.889808	49.170841	-100.889808	49.170841	-0.003342	-4.558463
0.350000	-0.004363	-5.315263	-100.266357	52.534209	-100.266357	52.534209	-0.004354	-5.315223
0.400000	-0.005441	-6.070910	-99.734130	55.287496	-99.734130	55.287496	-0.005432	-6.070875
0.450000	-0.006558	-6.825559	-99.296087	57.644299	-99.296087	57.644299	-0.006548	-6.825530
0.500000	-0.007697	-7.579202	-98.958662	59.723444	-98.958662	59.723444	-0.007687	-7.579179
0.550000	-0.008845	-8.331894	-98.724527	61.655849	-98.724527	61.655849	-0.008835	-8.331877
0.600000	-0.009991	-9.083687	-98.597179	63.564112	-98.597179	63.564112	-0.009981	-9.083675
0.650000	-0.011128	-9.834628	-98.581129	65.577278	-98.581129	65.577278	-0.011119	-9.834620
0.700000	-0.012253	-10.584764	-98.682137	67.844737	-98.682137	67.844737	-0.012245	-10.584759
0.750000	-0.013362	-11.334133	-98.906829	70.555172	-98.906829	70.555172	-0.013354	-11.334130
0.800000	-0.014454	-12.082766	-99.261076	73.963776	-99.261076	73.963776	-0.014448	-12.082763
0.850000	-0.015527	-12.830567	-99.752441	78.784322	-99.752441	78.784322	-0.015522	-12.830563
0.900000	-0.016583	-13.577643	-100.360976	85.261866	-100.360976	85.261866	-0.016579	-13.577637
0.950000	-0.017633	-14.324364	-100.961617	93.172390	-100.961617	93.172390	-0.017629	-14.324355
1.000000	-0.018660	-15.070019	-101.435414	105.381853	-101.435414	105.381853	-0.018656	-15.070007
1.050000	-0.019683	-15.815437	-101.724975	118.215598	-101.724975	118.215598	-0.019680	-15.815421
1.100000	-0.020687	-16.559669	-101.004980	134.170756	-101.004980	134.170756	-0.020685	-16.559648
1.150000	-0.021689	-17.303780	-100.217340	149.702750	-100.217340	149.702750	-0.021688	-17.303755
1.200000	-0.022676	-18.046557	-98.341232	160.579940	-98.341232	160.579940	-0.022674	-18.046527
1.250000	-0.023662	-18.789334	-96.799250	171.457131	-96.799250	171.457131	-0.023661	-18.789299
1.300000	-0.024639	-19.530989	-94.977571	177.790024	-94.977571	177.790024	-0.024638	-19.530950
1.350000	-0.025611	-20.271909	-93.249702	-177.788204	-93.249702	-177.788204	-0.025611	-20.271865
1.400000	-0.026579	-21.012078	-91.636620	-174.716154	-91.636620	-174.716154	-0.026578	-21.012029
1.450000	-0.027543	-21.751482	-90.136724	-172.605202	-90.136724	-172.605202	-0.027543	-21.751428
1.500000	-0.028505	-22.490103	-88.740585	-171.191608	-88.740585	-171.191608	-0.028505	-22.490045
1.550000	-0.029464	-23.227927	-87.436973	-170.295334	-87.436973	-170.295334	-0.029464	-23.227864
1.600000	-0.030422	-23.964937	-86.215114	-169.791428	-86.215114	-169.791428	-0.030422	-23.964870
1.650000	-0.031379	-24.701116	-85.065424	-169.591383	-85.065424	-169.591383	-0.031379	-24.701045
1.700000	-0.032335	-25.436146	-83.954529	-169.692786	-83.954529	-169.692786	-0.032335	-25.436071
1.750000	-0.033291	-26.170729	-82.936701	-169.902019	-82.936701	-169.902019	-0.033290	-26.170650
1.800000	-0.034246	-26.904234	-81.954261	-170.288975	-81.954261	-170.288975	-0.034246	-26.904151
1.850000	-0.035202	-27.636968	-81.025930	-170.802875	-81.025930	-170.802875	-0.035201	-27.636883
1.900000	-0.036158	-28.368744	-80.135497	-171.421359	-80.135497	-171.421359	-0.036157	-28.368655
1.950000	-0.037115	-29.099561	-79.280977	-172.144427	-79.280977	-172.144427	-0.037114	-29.099469
2.000000	-0.038072	-29.829551	-78.465926	-172.930164	-78.465926	-172.930164	-0.038072	-29.829457
2.050000	-0.039031	-30.558383	-77.673375	-173.803636	-77.673375	-173.803636	-0.039031	-30.558286
2.100000	-0.039991	-31.286533	-76.921275	-174.714517	-76.921275	-174.714517	-0.039991	-31.286433
2.150000	-0.040954	-32.013316	-76.181589	-175.700217	-76.181589	-175.700217	-0.040953	-32.013214
2.200000	-0.041917	-32.739571	-75.482924	-176.707491	-75.482924	-176.707491	-0.041916	-32.739468
2.250000	-0.042884	-33.464243	-74.788975	-177.779487	-74.788975	-177.779487	-0.042883	-33.464137
2.300000	-0.043851	-34.188552	-74.136304	-178.862818	-74.136304	-178.862818	-0.043850	-34.188444
2.350000	-0.044823	-34.911052	-73.482401	179.997173	-73.482401	179.997173	-0.044822	-34.910942
2.400000	-0.045796	-35.633365	-72.869794	178.852605	-72.869794	178.852605	-0.045795	-35.633253
2.450000	-0.046775	-36.353634	-72.251323	177.657884	-72.251323	177.657884	-0.046774	-36.353520
2.500000	-0.047754	-37.073903	-71.673977	176.463163	-71.673977	176.463163	-0.047753	-37.073787
2.550000	-0.048740	-37.791887	-71.087137	175.223666	-71.087137	175.223666	-0.048739	-37.791769
2.600000	-0.049727	-38.509870	-70.537449	173.984170	-70.537449	173.984170	-0.049726	-38.509750
2.650000	-0.050722	-39.225709	-69.982724	172.710596	-69.982724	172.710596	-0.050721	-39.225588
2.700000	-0.051718	-39.941353	-69.458085	171.433924	-69.458085	171.433924	-0.051717	-39.941230
2.750000	-0.052722	-40.655005	-68.932119	170.131216	-68.932119	170.131216	-0.052721	-40.654880
2.800000	-0.053729	-41.368259	-68.430308	168.823300	-68.430308	168.823300	-0.053728	-41.368132
2.850000	-0.054744	-42.079684	-67.930270	167.495485	-67.930270	167.495485	-0.054743	-42.079556
2.900000	-0.055762	-42.790499	-67.449380	166.161039	-67.449380	166.161039	-0.055761	-42.790369
2.950000	-0.056789	-43.499658	-66.972856	164.811442	-66.972856	164.811442	-0.056789	-43.499526
3.000000	-0.057821	-44.207988	-66.511233	163.454271	-66.511233	163.454271	-0.057820	-44.207854
3.050000	-0.058861	-44.914843	-66.056146	162.085664	-66.056146	162.085664	-0.058861	-44.914707
3.100000	-0.059908	-45.620645	-65.612346	160.708888	-65.612346	160.708888	-0.059908	-45.620507
3.150000	-0.060963	-46.325162	-65.176898	159.323606	-65.176898	159.323606	-0.060963	-46.325022
3.200000	-0.062026	-47.028393	-64.749650	157.929818	-64.749650	157.929818	-0.062026	-47.028252
3.250000	-0.063097	-47.730538	-64.332269	156.529850	-64.332269	156.529850	-0.063097	-47.730395
3.300000	-0.064178	-48.431161	-63.920450	155.121228	-63.920450	155.121228	-0.064178	-48.431016
3.350000	-0.065266	-49.130903	-63.519756	153.708281	-63.519756	153.708281	-0.065266	-49.130755
3.400000	-0.066368	-49.828882	-63.122362	152.286683	-63.122362	152.286683	-0.066368	-49.828732
3.450000	-0.067474	-50.526191	-62.737135	150.862238	-62.737135	150.862238	-0.067474	-50.526039
3.500000	-0.068597	-51.221491	-62.353270	149.429257	-62.353270	149.429257	-0.068597	-51.221337
3.550000	-0.069723	-51.916340	-61.982425	147.994610	-61.982425	147.994610	-0.069724	-51.916184
3.600000	-0.070869	-52.608931	-61.611282	146.551633	-61.611282	146.551633	-0.070869	-52.608773
3.650000	-0.072017	-53.301294	-61.253849	145.107925	-61.253849	145.107925	-0.072017	-53.301134
3.700000	-0.073188	-53.991148	-60.894698	143.656168	-60.894698	143.656168	-0.073188	-53.990986
3.750000	-0.074358	-54.681002	-60.549809	142.204412	-60.549809	142.204412	-0.074359	-54.680838
3.800000	-0.075555	-55.368093	-60.201985	140.744952	-60.201985	140.744952	-0.075556	-55.367927
3.850000	-0.076752	-56.055184	-59.867555	139.285493	-59.867555	139.285493	-0.076753	-56.055016
3.900000	-0.077975	-56.739722	-59.531755	137.819853	-59.531755	137.819853	-0.077976	-56.739551
3.950000	-0.079201	-57.424027	-59.207250	136.353651	-59.207250	136.353651	-0.079201	-57.423855
4.000000	-0.080451	-58.105994	-58.882744	134.882550	-58.882744	134.882550	-0.080451	-58.105820
4.050000	-0.081706	-58.787494	-58.567672	133.410469	-58.567672	133.410469	-0.081707	-58.787318
4.100000	-0.082985	-59.466877	-58.253798	131.934566	-58.253798	131.934566	-0.082985	-59.466698
4.150000	-0.084271	-60.145553	-57.947707	130.457388	-57.947707	130.457388	-0.084272	-60.145373
4.200000	-0.085580	-60.822338	-57.643859	128.977287	-57.643859	128.977287	-0.085581	-60.822155
4.250000	-0.086900	-61.498177	-57.346330	127.495725	-57.346330	127.495725	-0.086901	-61.497992
4.300000	-0.088241	-62.172353	-57.051954	126.011987	-57.051954	126.011987	-0.088242	-62.172166
4.350000	-0.089596	-62.845342	-56.762599	124.526693	-56.762599	124.526693	-0.089597	-62.845153
4.400000	-0.090969	-63.516901	-56.477187	123.039835	-56.477187	123.039835	-0.090970	-63.516711
4.450000	-0.092361	-64.187031	-56.195642	121.551411	-56.195642	121.551411	-0.092362	-64.186839
4.500000	-0.093768	-64.855967	-55.918726	120.061914	-55.918726	120.061914	-0.093769	-64.855773
4.550000	-0.095198	-65.523231	-55.644653	118.570915	-55.644653	118.570915	-0.095199	-65.523035
4.600000	-0.096642	-66.189539	-55.375800	117.079229	-55.375800	117.079229	-0.096642	-66.189341
4.650000	-0.098111	-66.853934	-55.108882	115.586171	-55.108882	115.586171	-0.098112	-66.853734
4.700000	-0.099592	-67.517611	-54.847691	114.092717	-54.847691	114.092717	-0.099593	-67.517410
4.750000	-0.101103	-68.179135	-54.587629	112.598077	-54.587629	112.598077	-0.101104	-68.178932
4.800000	-0.102622	-68.840180	-54.333728	111.103249	-54.333728	111.103249	-0.102623	-68.839976
4.850000	-0.104177	-69.498835	-54.080242	109.607475	-54.080242	109.607475	-0.104178	-69.498629
4.900000	-0.105736	-70.157250	-53.833285	108.111641	-53.833285	108.111641	-0.105736	-70.157043
4.950000	-0.107336	-70.813039	-53.586110	106.615149	-53.586110	106.615149	-0.107336	-70.812830
5.000000	-0.108936	-71.468828	-53.345774	105.118657	-53.345774	105.118657	-0.108936	-71.468617
5.050000	-0.110582	-72.121757	-53.104657	103.621835	-53.104657	103.621835	-0.110583	-72.121545
5.100000	-0.112229	-72.774686	-52.870054	102.125013	-52.870054	102.125013	-0.112229	-72.774473
5.150000	-0.113920	-73.425003	-52.635344	100.628220	-52.635344	100.628220	-0.113920	-73.424788
5.200000	-0.115614	-74.075082	-52.406255	99.131429	-52.406255	99.131429	-0.115615	-74.074866
5.250000	-0.117351	-74.722795	-52.177662	97.634947	-52.177662	97.634947	-0.117351	-74.722578
5.300000	-0.119096	-75.370035	-51.953880	96.138525	-51.953880	96.138525	-0.119095	-75.369817
5.350000	-0.120879	-76.015156	-51.731128	94.642616	-51.731128	94.642616	-0.120879	-76.014937
5.400000	-0.122675	-76.659571	-51.512455	93.146877	-51.512455	93.146877	-0.122675	-76.659351
5.450000	-0.124507	-77.302113	-51.295289	91.651786	-51.295289	91.651786	-0.124506	-77.301892
5.500000	-0.126356	-77.943719	-51.081535	90.157020	-51.081535	90.157020	-0.126356	-77.943496
5.550000	-0.128237	-78.583696	-50.869711	88.662977	-50.869711	88.662977	-0.128237	-78.583473
5.600000	-0.130141	-79.222511	-50.660696	87.169451	-50.660696	87.169451	-0.130141	-79.222287
5.650000	-0.132074	-79.859941	-50.453987	85.676669	-50.453987	85.676669	-0.132073	-79.859716
5.700000	-0.134034	-80.495985	-50.249537	84.184630	-50.249537	84.184630	-0.134034	-80.495760
5.750000	-0.136019	-81.130885	-50.047725	82.693304	-50.047725	82.693304	-0.136018	-81.130659
5.800000	-0.138037	-81.764182	-49.847674	81.202978	-49.847674	81.202978	-0.138037	-81.763956
5.850000	-0.140076	-82.396572	-49.650558	79.713290	-49.650558	79.713290	-0.140075	-82.396345
5.900000	-0.142154	-83.027147	-49.454746	78.224879	-49.454746	78.224879	-0.142153	-83.026920
5.950000	-0.144247	-83.657049	-49.262131	76.736994	-49.262131	76.736994	-0.144246	-83.656821
6.000000	-0.146386	-84.284929	-49.070406	75.250683	-49.070406	75.250683	-0.146385	-84.284700
6.050000	-0.148536	-84.912364	-48.882110	73.764750	-48.882110	73.764750	-0.148535	-84.912135
6.100000	-0.150738	-85.537578	-48.694325	72.280702	-48.694325	72.280702	-0.150737	-85.537349
6.150000	-0.152946	-86.162572	-48.510174	70.796855	-48.510174	70.796855	-0.152944	-86.162343
6.200000	-0.155212	-86.785151	-48.326188	69.315215	-48.326188	69.315215	-0.155210	-86.784922
6.250000	-0.157478	-87.407730	-48.146019	67.833574	-48.146019	67.833574	-0.157477	-87.407501
6.300000	-0.159810	-88.027707	-47.965698	66.354464	-47.965698	66.354464	-0.159809	-88.027478
6.350000	-0.162143	-88.647685	-47.789044	64.875353	-47.789044	64.875353	-0.162141	-88.647455
6.400000	-0.164537	-89.265309	-47.612568	63.398659	-47.612568	63.398659	-0.164535	-89.265080
6.450000	-0.166937	-89.882720	-47.439308	61.922183	-47.439308	61.922183	-0.166935	-89.882490
6.500000	-0.169394	-90.498022	-47.266528	60.447975	-47.266528	60.447975	-0.169392	-90.497792
6.550000	-0.171862	-91.112903	-47.096546	58.974220	-47.096546	58.974220	-0.171861	-91.112673
6.600000	-0.174384	-91.725915	-46.927318	57.502556	-46.927318	57.502556	-0.174382	-91.725686
6.650000	-0.176923	-92.338304	-46.760504	56.031589	-46.760504	56.031589	-0.176922	-92.338075
6.700000	-0.179511	-92.949060	-46.594694	54.562513	-46.594694	54.562513	-0.179509	-92.948831
6.750000	-0.182122	-93.558998	-46.430941	53.094383	-46.430941	53.094383	-0.182121	-93.558770
6.800000	-0.184776	-94.167532	-46.268421	51.627926	-46.268421	51.627926	-0.184775	-94.167303
6.850000	-0.187462	-94.775061	-46.107627	50.162664	-46.107627	50.162664	-0.187460	-94.774833
6.900000	-0.190184	-95.381409	-45.948278	48.698843	-45.948278	48.698843	-0.190183	-95.381181
6.950000	-0.192945	-95.986573	-45.790347	47.236464	-45.790347	47.236464	-0.192943	-95.986346
7.000000	-0.195737	-96.590772	-45.634054	45.775286	-45.634054	45.775286	-0.195736	-96.590545
7.050000	-0.198574	-97.193617	-45.478895	44.315788	-45.478895	44.315788	-0.198572	-97.193390
7.100000	-0.201437	-97.795705	-45.325550	42.857245	-45.325550	42.857245	-0.201436	-97.795478
7.150000	-0.204352	-98.396277	-45.173076	41.400611	-45.173076	41.400611	-0.204351	-98.396051
7.200000	-0.207287	-98.996294	-45.022578	39.944685	-45.022578	39.944685	-0.207286	-98.996068
7.250000	-0.210282	-99.594642	-44.872709	38.490884	-44.872709	38.490884	-0.210281	-99.594417
7.300000	-0.213291	-100.192628	-44.724962	37.037546	-44.724962	37.037546	-0.213290	-100.192404
7.350000	-0.216366	-100.788803	-44.577621	35.586531	-44.577621	35.586531	-0.216366	-100.788578
7.400000	-0.219450	-101.384800	-44.432535	34.135742	-44.432535	34.135742	-0.219449	-101.384576
7.450000	-0.222608	-101.978852	-44.287650	32.687454	-44.287650	32.687454	-0.222607	-101.978628
7.500000	-0.225767	-102.572903	-44.145143	31.239165	-44.145143	31.239165	-0.225767	-102.572680
7.550000	-0.229010	-103.164885	-44.002648	29.793533	-44.002648	29.793533	-0.229009	-103.164663
7.600000	-0.232253	-103.756867	-43.862453	28.347900	-43.862453	28.347900	-0.232253	-103.756645
7.650000	-0.235574	-104.347001	-43.722474	26.904628	-43.722474	26.904628	-0.235574	-104.346779
7.700000	-0.238903	-104.936968	-43.584534	25.461569	-43.584534	25.461569	-0.238903	-104.936746
7.750000	-0.242303	-105.525301	-43.446998	24.020580	-43.446998	24.020580	-0.242303	-105.525079
7.800000	-0.245719	-106.113307	-43.311261	22.580005	-43.311261	22.580005	-0.245719	-106.113086
7.850000	-0.249200	-106.699886	-43.176103	21.141216	-43.176103	21.141216	-0.249201	-106.699666
7.900000	-0.252704	-107.285990	-43.042520	19.703023	-43.042520	19.703023	-0.252705	-107.285769
7.950000	-0.256268	-107.870864	-42.909679	18.266347	-42.909679	18.266347	-0.256269	-107.870643
8.000000	-0.259862	-108.455123	-42.778208	16.830429	-42.778208	16.830429	-0.259863	-108.454902
8.050000	-0.263508	-109.038340	-42.647629	15.395772	-42.647629	15.395772	-0.263510	-109.038120
8.100000	-0.267193	-109.620814	-42.518232	13.962016	-42.518232	13.962016	-0.267195	-109.620594
8.150000	-0.270924	-110.202426	-42.389864	12.529282	-42.389864	12.529282	-0.270926	-110.202206
8.200000	-0.274701	-110.783176	-42.262508	11.097571	-42.262508	11.097571	-0.274704	-110.782955
8.250000	-0.278518	-111.363233	-42.136306	9.666662	-42.136306	9.666662	-0.278520	-111.363012
8.300000	-0.282389	-111.942320	-42.010964	8.236875	-42.010964	8.236875	-0.282392	-111.942100
8.350000	-0.286292	-112.520875	-41.886887	6.807689	-41.886887	6.807689	-0.286295	-112.520654
8.400000	-0.290258	-113.098364	-41.763537	5.379705	-41.763537	5.379705	-0.290261	-113.098142
8.450000	-0.294249	-113.675469	-41.641549	3.952142	-41.641549	3.952142	-0.294253	-113.675247
8.500000	-0.298312	-114.251423	-41.520172	2.525841	-41.520172	2.525841	-0.298315	-114.251201
8.550000	-0.302391	-114.827133	-41.400242	1.099801	-41.400242	1.099801	-0.302395	-114.826911
8.600000	-0.306551	-115.401619	-41.280828	-0.324936	-41.280828	-0.324936	-0.306555	-115.401396
8.650000	-0.310721	-115.975988	-41.162928	-1.749552	-41.162928	-1.749552	-0.310725	-115.975764
8.700000	-0.314980	-116.549073	-41.045470	-3.172838	-41.045470	-3.172838	-0.314984	-116.548848
8.750000	-0.319240	-117.122157	-40.929578	-4.596125	-40.929578	-4.596125	-0.319245	-117.121932
8.800000	-0.323599	-117.693908	-40.814072	-6.018068	-40.814072	-6.018068	-0.323604	-117.693682
8.850000	-0.327960	-118.265659	-40.700083	-7.440011	-40.700083	-7.440011	-0.327965	-118.265432
8.900000	-0.332411	-118.836252	-40.586621	-8.860815	-40.586621	-8.860815	-0.332417	-118.836023
8.950000	-0.336873	-119.406738	-40.474537	-10.281515	-40.474537	-10.281515	-0.336879	-119.406509
9.000000	-0.341419	-119.976231	-40.363108	-11.701252	-40.363108	-11.701252	-0.341425	-119.975999
9.050000	-0.345983	-120.545524	-40.252938	-13.120798	-40.252938	-13.120798	-0.345989	-120.545291
9.100000	-0.350624	-121.113976	-40.143536	-14.539535	-40.143536	-14.539535	-0.350630	-121.113741
9.150000	-0.355291	-121.682147	-40.035293	-15.958003	-40.035293	-15.958003	-0.355298	-121.681911
9.200000	-0.360028	-122.249619	-39.927915	-17.375793	-39.927915	-17.375793	-0.360034	-122.249381
9.250000	-0.364800	-122.816741	-39.821618	-18.793246	-39.821618	-18.793246	-0.364807	-122.816502
9.300000	-0.369633	-123.383295	-39.716264	-20.210132	-39.716264	-20.210132	-0.369640	-123.383053
9.350000	-0.374510	-123.949442	-39.611933	-21.626615	-39.611933	-21.626615	-0.374518	-123.949198
9.400000	-0.379441	-124.515139	-39.508608	-23.042626	-39.508608	-23.042626	-0.379448	-124.514893
9.450000	-0.384425	-125.080387	-39.406269	-24.458165	-39.406269	-24.458165	-0.384433	-125.080138
9.500000	-0.389454	-125.645291	-39.304980	-25.873315	-39.304980	-25.873315	-0.389462	-125.645040
9.550000	-0.394545	-126.209715	-39.204663	-27.287918	-39.204663	-27.287918	-0.394553	-126.209462
9.600000	-0.399673	-126.773891	-39.105420	-28.702204	-39.105420	-28.702204	-0.399681	-126.773634
9.650000	-0.404873	-127.337569	-39.007157	-30.115854	-39.007157	-30.115854	-0.404881	-127.337310
9.700000	-0.410101	-127.901081	-38.909972	-31.529255	-38.909972	-31.529255	-0.410109	-127.900819
9.750000	-0.415409	-128.464093	-38.813801	-32.941911	-38.813801	-32.941911	-0.415417	-128.463827
9.800000	-0.420738	-129.027007	-38.718690	-34.354390	-38.718690	-34.354390	-0.420746	-129.026738
9.850000	-0.426156	-129.589432	-38.624648	-35.765984	-38.624648	-35.765984	-0.426164	-129.589159
9.900000	-0.431586	-130.151815	-38.531629	-37.177481	-38.531629	-37.177481	-0.431594	-130.151539
9.950000	-0.437114	-130.713735	-38.439758	-38.587917	-38.439758	-38.587917	-0.437122	-130.713455
10.000000	-0.442646	-131.275655	-38.348849	-39.998353	-38.348849	-39.998353	-0.442654	-131.275371
