! freq	dB(S11)	phase(S11)	dB(S12)	phase(S12)	
!     	dB(S21)	phase(S21)	dB(S22)	phase(S22)	
!S-par simulation data
#  GHz  S  DB  R 50
0.000000	-0.000000	-0.000000	-365.373562	180.000000	-365.373562	180.000000	-0.000000	0.000000
0.050000	-0.000100	-0.903048	-91.794660	-2.899851	-91.794660	-2.899851	-0.000200	-0.741328
0.100000	-0.000397	-1.805885	-91.835837	-4.961425	-91.835837	-4.961425	-0.000765	-1.481768
0.150000	-0.000881	-2.708310	-91.905126	-7.254409	-91.905126	-7.254409	-0.001608	-2.220701
0.200000	-0.001537	-3.610154	-92.002380	-9.656884	-92.002380	-9.656884	-0.002622	-2.957896
0.250000	-0.002359	-4.511212	-92.129844	-12.170775	-92.129844	-12.170775	-0.003722	-3.693293
0.300000	-0.003312	-5.411430	-92.285586	-14.803736	-92.285586	-14.803736	-0.004836	-4.427271
0.350000	-0.004382	-6.310682	-92.471477	-17.586462	-92.471477	-17.586462	-0.005934	-5.160015
0.400000	-0.005548	-7.208902	-92.688207	-20.552821	-92.688207	-20.552821	-0.006998	-5.891767
0.450000	-0.006791	-8.106047	-92.936260	-23.744293	-92.936260	-23.744293	-0.008024	-6.622722
0.500000	-0.008092	-9.002098	-93.215670	-27.211211	-93.215670	-27.211211	-0.009015	-7.353021
0.550000	-0.009434	-9.897053	-93.525619	-31.014459	-93.525619	-31.014459	-0.009977	-8.082759
0.600000	-0.010802	-10.790925	-93.863818	-35.227229	-93.863818	-35.227229	-0.010917	-8.811995
0.650000	-0.012185	-11.683736	-94.225566	-39.936193	-94.225566	-39.936193	-0.011841	-9.540761
0.700000	-0.013572	-12.575514	-94.602378	-45.240825	-94.602378	-45.240825	-0.012755	-10.269072
0.750000	-0.014955	-13.466289	-94.980127	-51.248574	-94.980127	-51.248574	-0.013664	-10.996927
0.800000	-0.016329	-14.356094	-95.336866	-58.062225	-95.336866	-58.062225	-0.014571	-11.724321
0.850000	-0.017688	-15.244957	-95.641005	-65.755200	-95.641005	-65.755200	-0.015479	-12.451242
0.900000	-0.019031	-16.132905	-95.851420	-74.333105	-95.851420	-74.333105	-0.016390	-13.177676
0.950000	-0.020354	-17.019961	-95.921790	-83.688961	-95.921790	-83.688961	-0.017303	-13.903607
1.000000	-0.021657	-17.906146	-95.810600	-93.574677	-95.810600	-93.574677	-0.018222	-14.629018
1.050000	-0.022941	-18.791475	-95.494403	-103.619900	-95.494403	-103.619900	-0.019144	-15.353893
1.100000	-0.024204	-19.675958	-94.977118	-113.410953	-94.977118	-113.410953	-0.020072	-16.078216
1.150000	-0.025449	-20.559603	-94.288574	-122.596910	-94.288574	-122.596910	-0.021003	-16.801971
1.200000	-0.026676	-21.442414	-93.473237	-130.962279	-93.473237	-130.962279	-0.021939	-17.525145
1.250000	-0.027886	-22.324391	-92.576919	-138.434798	-92.576919	-138.434798	-0.022878	-18.247723
1.300000	-0.029081	-23.205495	-91.633029	-145.014018	-91.633029	-145.014018	-0.023821	-18.969664
1.350000	-0.030262	-24.085756	-90.676496	-150.832019	-90.676496	-150.832019	-0.024766	-19.690983
1.400000	-0.031432	-24.965168	-89.725691	-155.997052	-89.725691	-155.997052	-0.025713	-20.411667
1.450000	-0.032590	-25.843720	-88.791899	-160.614011	-88.791899	-160.614011	-0.026662	-21.131706
1.500000	-0.033740	-26.721402	-87.881495	-164.776308	-87.881495	-164.776308	-0.027612	-21.851087
1.550000	-0.034883	-27.598201	-86.997639	-168.563517	-86.997639	-168.563517	-0.028563	-22.569801
1.600000	-0.036018	-28.474104	-86.141464	-172.041835	-86.141464	-172.041835	-0.029514	-23.287838
1.650000	-0.037149	-29.349096	-85.312882	-175.265686	-85.312882	-175.265686	-0.030466	-24.005187
1.700000	-0.038276	-30.223164	-84.511096	-178.279599	-84.511096	-178.279599	-0.031417	-24.721839
1.750000	-0.039400	-31.096290	-83.734930	178.880002	-83.734930	178.880002	-0.032369	-25.437785
1.800000	-0.040523	-31.968461	-82.983030	176.183256	-82.983030	176.183256	-0.033320	-26.153015
1.850000	-0.041644	-32.839659	-82.253987	173.605587	-82.253987	173.605587	-0.034271	-26.867521
1.900000	-0.042766	-33.709870	-81.546411	171.126668	-81.546411	171.126668	-0.035222	-27.581292
1.950000	-0.043888	-34.579076	-80.858970	168.729601	-80.858970	168.729601	-0.036172	-28.294320
2.000000	-0.045012	-35.447263	-80.190414	166.400259	-80.190414	166.400259	-0.037122	-29.006597
2.050000	-0.046138	-36.314414	-79.539586	164.126771	-79.539586	164.126771	-0.038073	-29.718112
2.100000	-0.047266	-37.180515	-78.905420	161.899107	-78.905420	161.899107	-0.039023	-30.428858
2.150000	-0.048399	-38.045549	-78.286942	159.708755	-78.286942	159.708755	-0.039974	-31.138825
2.200000	-0.049535	-38.909503	-77.683266	157.548461	-77.683266	157.548461	-0.040926	-31.848004
2.250000	-0.050676	-39.772362	-77.093587	155.412016	-77.093587	155.412016	-0.041878	-32.556387
2.300000	-0.051822	-40.634112	-76.517175	153.294089	-76.517175	153.294089	-0.042832	-33.263965
2.350000	-0.052973	-41.494738	-75.953368	151.190093	-75.953368	151.190093	-0.043788	-33.970729
2.400000	-0.054130	-42.354229	-75.401568	149.096073	-75.401568	149.096073	-0.044745	-34.676671
2.450000	-0.055294	-43.212571	-74.861236	147.008616	-74.861236	147.008616	-0.045705	-35.381781
2.500000	-0.056464	-44.069753	-74.331880	144.924775	-74.331880	144.924775	-0.046667	-36.086051
2.550000	-0.057641	-44.925710	-73.812176	142.841953	-73.812176	142.841953	-0.047632	-36.789435
2.600000	-0.058826	-45.780483	-73.302676	140.757854	-73.302676	140.757854	-0.048601	-37.491961
2.650000	-0.060019	-46.634061	-72.803011	138.670643	-72.803011	138.670643	-0.049574	-38.193621
2.700000	-0.061220	-47.486433	-72.312851	136.578755	-72.312851	136.578755	-0.050552	-38.894406
2.750000	-0.062429	-48.337590	-71.831893	134.480868	-71.831893	134.480868	-0.051533	-39.594309
2.800000	-0.063647	-49.187524	-71.359864	132.375877	-71.359864	132.375877	-0.052521	-40.293320
2.850000	-0.064874	-50.036225	-70.896512	130.262871	-70.896512	130.262871	-0.053513	-40.991431
2.900000	-0.066111	-50.883686	-70.441610	128.141116	-70.441610	128.141116	-0.054512	-41.688636
2.950000	-0.067358	-51.729900	-69.994945	126.010037	-69.994945	126.010037	-0.055518	-42.384926
3.000000	-0.068614	-52.574859	-69.556325	123.869208	-69.556325	123.869208	-0.056530	-43.080293
3.050000	-0.069882	-53.418557	-69.125568	121.718333	-69.125568	121.718333	-0.057549	-43.774729
3.100000	-0.071160	-54.260989	-68.702506	119.557235	-68.702506	119.557235	-0.058577	-44.468228
3.150000	-0.072449	-55.102149	-68.286982	117.385851	-68.286982	117.385851	-0.059612	-45.160783
3.200000	-0.073750	-55.942033	-67.878844	115.204215	-67.878844	115.204215	-0.060656	-45.852385
3.250000	-0.075063	-56.780636	-67.477950	113.012451	-67.477950	113.012451	-0.061710	-46.543029
3.300000	-0.076389	-57.617954	-67.084162	110.810764	-67.084162	110.810764	-0.062773	-47.232708
3.350000	-0.077727	-58.453985	-66.697347	108.599434	-66.697347	108.599434	-0.063845	-47.921414
3.400000	-0.079078	-59.288726	-66.317374	106.378800	-66.317374	106.378800	-0.064929	-48.609143
3.450000	-0.080443	-60.122174	-65.944113	104.149262	-65.944113	104.149262	-0.066023	-49.295887
3.500000	-0.081822	-60.954328	-65.577439	101.911266	-65.577439	101.911266	-0.067128	-49.981641
3.550000	-0.083215	-61.785188	-65.217222	99.665298	-65.217222	99.665298	-0.068245	-50.666399
3.600000	-0.084623	-62.614751	-64.863335	97.411879	-64.863335	97.411879	-0.069374	-51.350156
3.650000	-0.086046	-63.443019	-64.515650	95.151556	-64.515650	95.151556	-0.070515	-52.032906
3.700000	-0.087485	-64.269990	-64.174036	92.884893	-64.174036	92.884893	-0.071669	-52.714644
3.750000	-0.088940	-65.095668	-63.838362	90.612470	-63.838362	90.612470	-0.072837	-53.395367
3.800000	-0.090413	-65.919995	-63.508205	88.334676	-63.508205	88.334676	-0.074019	-54.075023
3.850000	-0.091903	-66.743031	-63.183743	86.052346	-63.183743	86.052346	-0.075215	-54.753654
3.900000	-0.093410	-67.564779	-62.864835	83.766060	-62.864835	83.766060	-0.076425	-55.431255
3.950000	-0.094935	-68.385239	-62.551340	81.476388	-62.551340	81.476388	-0.077651	-56.107822
4.000000	-0.096479	-69.204417	-62.243114	79.183882	-62.243114	79.183882	-0.078892	-56.783353
4.050000	-0.098042	-70.022316	-61.940011	76.889076	-61.940011	76.889076	-0.080148	-57.457842
4.100000	-0.099625	-70.838939	-61.641884	74.592480	-61.641884	74.592480	-0.081421	-58.131288
4.150000	-0.101227	-71.654292	-61.348587	72.294578	-61.348587	72.294578	-0.082710	-58.803688
4.200000	-0.102851	-72.468379	-61.059971	69.995821	-61.059971	69.995821	-0.084015	-59.475038
4.250000	-0.104495	-73.281206	-60.775888	67.696633	-60.775888	67.696633	-0.085339	-60.145337
4.300000	-0.106161	-74.092780	-60.496190	65.397400	-60.496190	65.397400	-0.086679	-60.814582
4.350000	-0.107849	-74.903106	-60.220731	63.098474	-60.220731	63.098474	-0.088038	-61.482772
4.400000	-0.109560	-75.712191	-59.949364	60.800170	-59.949364	60.800170	-0.089415	-62.149905
4.450000	-0.111294	-76.520043	-59.681945	58.502768	-59.681945	58.502768	-0.090811	-62.815979
4.500000	-0.113052	-77.326669	-59.418332	56.206507	-59.418332	56.206507	-0.092226	-63.480993
4.550000	-0.114834	-78.132078	-59.158386	53.911593	-59.158386	53.911593	-0.093660	-64.144947
4.600000	-0.116646	-78.936070	-58.901256	51.618492	-58.901256	51.618492	-0.095118	-64.807656
4.650000	-0.118483	-79.738810	-58.647390	49.327112	-58.647390	49.327112	-0.096597	-65.469256
4.700000	-0.120335	-80.540933	-58.398679	47.036665	-58.398679	47.036665	-0.098087	-66.130303
4.750000	-0.122227	-81.341205	-58.150903	44.749019	-58.150903	44.749019	-0.099610	-66.789688
4.800000	-0.124129	-82.141073	-57.908665	42.462012	-57.908665	42.462012	-0.101140	-67.448705
4.850000	-0.126079	-82.938922	-57.666508	40.178201	-57.666508	40.178201	-0.102707	-68.105877
4.900000	-0.128034	-83.736572	-57.430267	37.894697	-57.430267	37.894697	-0.104279	-68.762865
4.950000	-0.130043	-84.532047	-57.193297	35.614565	-57.193297	35.614565	-0.105893	-69.417828
5.000000	-0.132052	-85.327521	-56.962621	33.334433	-56.962621	33.334433	-0.107508	-70.072791
5.050000	-0.134122	-86.120675	-56.730448	31.057612	-56.730448	31.057612	-0.109170	-70.725551
5.100000	-0.136193	-86.913828	-56.504320	28.780790	-56.504320	28.780790	-0.110833	-71.378312
5.150000	-0.138322	-87.704905	-56.277227	26.506511	-56.277227	26.506511	-0.112541	-72.029061
5.200000	-0.140457	-88.495794	-56.055327	24.232463	-56.055327	24.232463	-0.114254	-72.679628
5.250000	-0.142647	-89.284847	-55.832994	21.960177	-55.832994	21.960177	-0.116009	-73.328376
5.300000	-0.144848	-90.073532	-55.615049	19.688243	-55.615049	19.688243	-0.117773	-73.976759
5.350000	-0.147099	-90.860611	-55.397206	17.417348	-55.397206	17.417348	-0.119577	-74.623516
5.400000	-0.149369	-91.647156	-55.182991	15.146799	-55.182991	15.146799	-0.121394	-75.269730
5.450000	-0.151684	-92.432320	-54.969411	12.876668	-54.969411	12.876668	-0.123247	-75.914507
5.500000	-0.154024	-93.216792	-54.758751	10.606746	-54.758751	10.606746	-0.125118	-76.558566
5.550000	-0.156406	-94.000098	-54.549253	8.336761	-54.549253	8.336761	-0.127022	-77.201379
5.600000	-0.158818	-94.782569	-54.342021	6.066730	-54.342021	6.066730	-0.128950	-77.843301
5.650000	-0.161267	-95.564078	-54.136463	3.796308	-54.136463	3.796308	-0.130906	-78.484164
5.700000	-0.163754	-96.344624	-53.932576	1.525494	-53.932576	1.525494	-0.132891	-79.123968
5.750000	-0.166272	-97.124401	-53.730855	-0.745884	-53.730855	-0.745884	-0.134901	-79.762898
5.800000	-0.168835	-97.903100	-53.530276	-3.018051	-53.530276	-3.018051	-0.136945	-80.400606
5.850000	-0.171424	-98.681210	-53.332319	-5.290815	-53.332319	-5.290815	-0.139010	-81.037622
5.900000	-0.174066	-99.458144	-53.135048	-7.564771	-53.135048	-7.564771	-0.141115	-81.673257
5.950000	-0.176728	-100.234659	-52.940813	-9.839242	-52.940813	-9.839242	-0.143236	-82.308379
6.000000	-0.179449	-101.009914	-52.746883	-12.115253	-52.746883	-12.115253	-0.145403	-82.941966
6.050000	-0.182185	-101.784905	-52.556354	-14.391620	-52.556354	-14.391620	-0.147581	-83.575217
6.100000	-0.184989	-102.558571	-52.365827	-16.669762	-52.365827	-16.669762	-0.149812	-84.206783
6.150000	-0.187800	-103.332113	-52.179004	-18.948071	-52.179004	-18.948071	-0.152049	-84.838184
6.200000	-0.190688	-104.104283	-51.991962	-21.228211	-51.991962	-21.228211	-0.154345	-85.467760
6.250000	-0.193576	-104.876453	-51.808863	-23.508351	-51.808863	-23.508351	-0.156642	-86.097336
6.300000	-0.196549	-105.647224	-51.625402	-25.790136	-51.625402	-25.790136	-0.159006	-86.724952
6.350000	-0.199523	-106.417995	-51.445735	-28.071921	-51.445735	-28.071921	-0.161370	-87.352568
6.400000	-0.202576	-107.187576	-51.266274	-30.354689	-51.266274	-30.354689	-0.163796	-87.978417
6.450000	-0.205637	-107.957048	-51.090139	-32.637546	-51.090139	-32.637546	-0.166229	-88.604107
6.500000	-0.208772	-108.725525	-50.914710	-34.920642	-50.914710	-34.920642	-0.168719	-89.228219
6.550000	-0.211922	-109.493804	-50.742204	-37.203785	-50.742204	-37.203785	-0.171222	-89.852016
6.600000	-0.215139	-110.261267	-50.570829	-39.486405	-50.570829	-39.486405	-0.173778	-90.474422
6.650000	-0.218379	-111.028458	-50.402041	-41.768851	-50.402041	-41.768851	-0.176353	-91.096363
6.700000	-0.221681	-111.795000	-50.234731	-44.050061	-50.234731	-44.050061	-0.178976	-91.717093
6.750000	-0.225013	-112.561216	-50.069730	-46.330653	-50.069730	-46.330653	-0.181624	-92.337218
6.800000	-0.228399	-113.326931	-49.906479	-48.609409	-49.906479	-48.609409	-0.184315	-92.956305
6.850000	-0.231825	-114.092287	-49.745311	-50.886852	-49.745311	-50.886852	-0.187038	-93.574652
6.900000	-0.235298	-114.857273	-49.586094	-53.162024	-49.586094	-53.162024	-0.189799	-94.192132
6.950000	-0.238818	-115.621888	-49.428776	-55.434924	-49.428776	-55.434924	-0.192598	-94.808743
7.000000	-0.242378	-116.386246	-49.273544	-57.705331	-49.273544	-57.705331	-0.195430	-95.424649
7.050000	-0.245995	-117.150243	-49.120057	-59.972245	-49.120057	-59.972245	-0.198307	-96.039568
7.100000	-0.249644	-117.914076	-48.968736	-62.236682	-48.968736	-62.236682	-0.201212	-96.653938
7.150000	-0.253358	-118.677580	-48.819026	-64.496166	-48.819026	-64.496166	-0.204169	-97.267209
7.200000	-0.257097	-119.440995	-48.671518	-66.753445	-48.671518	-66.753445	-0.207147	-97.880080
7.250000	-0.260909	-120.204138	-48.525488	-69.004111	-48.525488	-69.004111	-0.210185	-98.491750
7.300000	-0.264739	-120.967242	-48.381668	-71.253094	-48.381668	-71.253094	-0.213238	-99.103161
7.350000	-0.268651	-121.730157	-48.239185	-73.493665	-48.239185	-73.493665	-0.216360	-99.713278
7.400000	-0.272574	-122.493064	-48.098904	-75.733301	-48.098904	-75.733301	-0.219489	-100.323269
7.450000	-0.276587	-123.255888	-47.959795	-77.962663	-47.959795	-77.962663	-0.222695	-100.931882
7.500000	-0.280603	-124.018713	-47.822879	-80.192026	-47.822879	-80.192026	-0.225902	-101.540494
7.550000	-0.284719	-124.781588	-47.686939	-82.409282	-47.686939	-82.409282	-0.229195	-102.147654
7.600000	-0.288836	-125.544463	-47.553093	-84.626537	-47.553093	-84.626537	-0.232488	-102.754814
7.650000	-0.293048	-126.307519	-47.420184	-86.832112	-47.420184	-86.832112	-0.235862	-103.360689
7.700000	-0.297269	-127.070590	-47.289180	-89.036625	-47.289180	-89.036625	-0.239243	-103.966448
7.750000	-0.301577	-127.833950	-47.159057	-91.230239	-47.159057	-91.230239	-0.242698	-104.571085
7.800000	-0.305903	-128.597368	-47.030644	-93.421672	-47.030644	-93.421672	-0.246169	-105.175496
7.850000	-0.310308	-129.361159	-46.903050	-95.603294	-46.903050	-95.603294	-0.249708	-105.778939
7.900000	-0.314741	-130.125075	-46.776959	-97.781646	-46.776959	-97.781646	-0.253271	-106.382059
7.950000	-0.319244	-130.889429	-46.651637	-99.951515	-46.651637	-99.951515	-0.256894	-106.984356
8.000000	-0.323784	-131.654001	-46.527587	-102.117142	-46.527587	-102.117142	-0.260549	-107.586241
8.050000	-0.328387	-132.419050	-46.404279	-104.275776	-46.404279	-104.275776	-0.264260	-108.187438
8.100000	-0.333036	-133.184439	-46.281990	-106.429415	-46.281990	-106.429415	-0.268009	-108.788145
8.150000	-0.337739	-133.950319	-46.160446	-108.577623	-46.160446	-108.577623	-0.271807	-109.388293
8.200000	-0.342497	-134.716690	-46.039641	-110.720400	-46.039641	-110.720400	-0.275653	-109.987882
8.250000	-0.347301	-135.483541	-45.919623	-112.859285	-45.919623	-112.859285	-0.279540	-110.587030
8.300000	-0.352170	-136.251063	-45.800041	-114.992722	-45.800041	-114.992722	-0.283484	-111.185561
8.350000	-0.357077	-137.019027	-45.681330	-117.123684	-45.681330	-117.123684	-0.287461	-111.783760
8.400000	-0.362058	-137.787873	-45.562734	-119.249699	-45.562734	-119.249699	-0.291504	-112.381295
8.450000	-0.367069	-138.557095	-45.445132	-121.374434	-45.445132	-121.374434	-0.295574	-112.978596
8.500000	-0.372163	-139.327442	-45.327317	-123.495333	-45.327317	-123.495333	-0.299718	-113.575198
8.550000	-0.377278	-140.098071	-45.210657	-125.615825	-45.210657	-125.615825	-0.303881	-114.171655
8.600000	-0.382487	-140.870101	-45.093461	-127.734289	-45.093461	-127.734289	-0.308128	-114.767388
8.650000	-0.387708	-141.642287	-44.977609	-129.852804	-44.977609	-129.852804	-0.312385	-115.363054
8.700000	-0.393032	-142.416186	-44.860925	-131.971875	-44.860925	-131.971875	-0.316737	-115.957984
8.750000	-0.398360	-143.190084	-44.745787	-134.090945	-44.745787	-134.090945	-0.321090	-116.552914
8.800000	-0.403801	-143.966040	-44.629567	-136.213995	-44.629567	-136.213995	-0.325548	-117.147107
8.850000	-0.409246	-144.741997	-44.514883	-138.337045	-44.514883	-138.337045	-0.330008	-117.741301
8.900000	-0.414796	-145.520017	-44.399372	-140.467107	-44.399372	-140.467107	-0.334564	-118.334882
8.950000	-0.420359	-146.298224	-44.285169	-142.597806	-44.285169	-142.597806	-0.339132	-118.928407
9.000000	-0.426019	-147.078473	-44.170459	-144.738151	-44.170459	-144.738151	-0.343789	-119.521432
9.050000	-0.431702	-147.859130	-44.056852	-146.880425	-44.056852	-146.880425	-0.348465	-120.114358
9.100000	-0.437474	-148.641776	-43.943108	-149.034468	-43.943108	-149.034468	-0.353224	-120.706888
9.150000	-0.443278	-149.425085	-43.830307	-151.192434	-43.830307	-151.192434	-0.358012	-121.299285
9.200000	-0.449162	-150.210299	-43.717775	-153.363687	-43.717775	-153.363687	-0.362874	-121.891377
9.250000	-0.455088	-150.996466	-43.606102	-155.541584	-43.606102	-155.541584	-0.367774	-122.483317
9.300000	-0.461086	-151.784423	-43.495116	-157.733589	-43.495116	-157.733589	-0.372741	-123.075033
9.350000	-0.467137	-152.573659	-43.385014	-159.935671	-43.385014	-159.935671	-0.377755	-123.666589
9.400000	-0.473249	-153.364537	-43.276001	-162.151922	-43.276001	-162.151922	-0.382827	-124.257989
9.450000	-0.479425	-154.157056	-43.168052	-164.382342	-43.168052	-164.382342	-0.387958	-124.849235
9.500000	-0.485654	-154.951035	-43.061538	-166.626190	-43.061538	-166.626190	-0.393137	-125.440382
9.550000	-0.491956	-155.747057	-42.956468	-168.888837	-42.956468	-168.888837	-0.398384	-126.031393
9.600000	-0.498302	-156.544321	-42.853087	-171.163374	-42.853087	-171.163374	-0.403672	-126.622350
9.650000	-0.504733	-157.344069	-42.751776	-173.461688	-42.751776	-173.461688	-0.409039	-127.213202
9.700000	-0.511198	-158.144806	-42.652263	-175.769609	-42.652263	-175.769609	-0.414436	-127.804033
9.750000	-0.517758	-158.948507	-42.555747	-178.106354	-42.555747	-178.106354	-0.419923	-128.394804
9.800000	-0.524343	-159.752907	-42.460947	179.550190	-42.460947	179.550190	-0.425432	-128.985574
9.850000	-0.531034	-160.560794	-42.370410	177.173180	-42.370410	177.173180	-0.431040	-129.576342
9.900000	-0.537741	-161.369049	-42.281266	174.792763	-42.281266	174.792763	-0.436661	-130.167117
9.950000	-0.544565	-162.181357	-42.198023	172.374860	-42.198023	172.374860	-0.442392	-130.757963
10.000000	-0.551394	-162.993665	-42.115571	169.956957	-42.115571	169.956957	-0.448127	-131.348809
