! freq	dB(S11)	phase(S11)	dB(S12)	phase(S12)	
!     	dB(S21)	phase(S21)	dB(S22)	phase(S22)	
!S-par simulation data
#  GHz  S  DB  R 50
0.000000	0.000000	0.000000	-352.296292	180.000000	-352.296292	180.000000	-0.000000	0.000000
0.050000	-0.000124	-1.048875	-110.146852	88.072163	-110.146852	88.072163	-0.000108	-0.940274
0.100000	-0.000493	-2.097449	-104.220604	86.221614	-104.220604	86.221614	-0.000429	-1.880300
0.150000	-0.001094	-3.145442	-100.848812	84.510130	-100.848812	84.510130	-0.000953	-2.819846
0.200000	-0.001904	-4.192613	-98.546601	82.974562	-98.546601	82.974562	-0.001661	-3.758713
0.250000	-0.002913	-5.238684	-96.852845	81.644499	-96.852845	81.644499	-0.002544	-4.696666
0.300000	-0.004074	-6.283585	-95.543563	80.503051	-95.543563	80.503051	-0.003566	-5.633643
0.350000	-0.005369	-7.327148	-94.511607	79.552912	-94.511607	79.552912	-0.004708	-6.569500
0.400000	-0.006770	-8.369287	-93.690507	78.788092	-93.690507	78.788092	-0.005950	-7.504162
0.450000	-0.008251	-9.409950	-93.038899	78.206896	-93.038899	78.206896	-0.007267	-8.437580
0.500000	-0.009790	-10.449114	-92.530323	77.815376	-92.530323	77.815376	-0.008641	-9.369730
0.550000	-0.011366	-11.486776	-92.147776	77.629923	-92.147776	77.629923	-0.010054	-10.300610
0.600000	-0.012962	-12.522947	-91.880593	77.679797	-91.880593	77.679797	-0.011489	-11.230227
0.650000	-0.014566	-13.557649	-91.722508	78.010350	-91.722508	78.010350	-0.012936	-12.158602
0.700000	-0.016167	-14.590906	-91.670326	78.687711	-91.670326	78.687711	-0.014383	-13.085756
0.750000	-0.017757	-15.622743	-91.722782	79.805787	-91.722782	79.805787	-0.015824	-14.011717
0.800000	-0.019330	-16.653182	-91.879156	81.496485	-91.879156	81.496485	-0.017252	-14.936507
0.850000	-0.020883	-17.682242	-92.137016	83.943784	-92.137016	83.943784	-0.018663	-15.860149
0.900000	-0.022413	-18.709935	-92.488003	87.400490	-92.488003	87.400490	-0.020056	-16.782659
0.950000	-0.023920	-19.736271	-92.909845	92.200084	-92.909845	92.200084	-0.021428	-17.704053
1.000000	-0.025403	-20.761250	-93.352428	98.738930	-93.352428	98.738930	-0.022779	-18.624337
1.050000	-0.026863	-21.784869	-93.718794	107.372268	-93.718794	107.372268	-0.024109	-19.543517
1.100000	-0.028302	-22.807122	-93.855363	118.151153	-93.855363	118.151153	-0.025419	-20.461593
1.150000	-0.029719	-23.827994	-93.588604	130.444945	-93.588604	130.444945	-0.026710	-21.378559
1.200000	-0.031118	-24.847469	-92.827522	142.852298	-92.827522	142.852298	-0.027983	-22.294408
1.250000	-0.032499	-25.865529	-91.640747	153.861370	-91.640747	153.861370	-0.029240	-23.209129
1.300000	-0.033863	-26.882086	-90.183497	162.586414	-90.183497	162.586414	-0.030481	-24.122657
1.350000	-0.035213	-27.897178	-88.638282	169.154953	-88.638282	169.154953	-0.031709	-25.035025
1.400000	-0.036551	-28.910777	-87.102408	173.943564	-87.102408	173.943564	-0.032924	-25.946213
1.450000	-0.037877	-29.922857	-85.623515	177.359232	-85.623515	177.359232	-0.034129	-26.856203
1.500000	-0.039194	-30.933387	-84.220144	179.740799	-84.220144	179.740799	-0.035325	-27.764971
1.550000	-0.040503	-31.942339	-82.896160	-178.654840	-82.896160	-178.654840	-0.036514	-28.672497
1.600000	-0.041804	-32.949682	-81.648762	-177.639476	-81.648762	-177.639476	-0.037695	-29.578756
1.650000	-0.043099	-33.955387	-80.472501	-177.076279	-80.472501	-177.076279	-0.038871	-30.483726
1.700000	-0.044389	-34.959422	-79.361190	-176.865276	-79.361190	-176.865276	-0.040042	-31.387381
1.750000	-0.045675	-35.961760	-78.308759	-176.932627	-78.308759	-176.932627	-0.041210	-32.289699
1.800000	-0.046958	-36.962369	-77.309605	-177.223059	-77.309605	-177.223059	-0.042375	-33.190654
1.850000	-0.048238	-37.961221	-76.358699	-177.694614	-76.358699	-177.694614	-0.043538	-34.090223
1.900000	-0.049517	-38.958287	-75.451592	-178.314987	-75.451592	-178.314987	-0.044700	-34.988381
1.950000	-0.050795	-39.953539	-74.584367	-179.058976	-74.584367	-179.058976	-0.045862	-35.885106
2.000000	-0.052072	-40.946950	-73.753585	-179.906664	-73.753585	-179.906664	-0.047024	-36.780374
2.050000	-0.053350	-41.938494	-72.956219	179.157869	-72.956219	179.157869	-0.048187	-37.674162
2.100000	-0.054629	-42.928145	-72.189606	178.147494	-72.189606	178.147494	-0.049351	-38.566447
2.150000	-0.055910	-43.915878	-71.451388	177.072721	-71.451388	177.072721	-0.050517	-39.457208
2.200000	-0.057193	-44.901669	-70.739475	175.942214	-70.739475	175.942214	-0.051686	-40.346424
2.250000	-0.058478	-45.885495	-70.052008	174.763176	-70.052008	174.763176	-0.052858	-41.234074
2.300000	-0.059766	-46.867334	-69.387325	173.541648	-69.387325	173.541648	-0.054033	-42.120137
2.350000	-0.061058	-47.847165	-68.743933	172.282732	-68.743933	172.282732	-0.055211	-43.004595
2.400000	-0.062353	-48.824969	-68.120492	170.990766	-68.120492	170.990766	-0.056394	-43.887428
2.450000	-0.063654	-49.800724	-67.515788	169.669466	-67.515788	169.669466	-0.057582	-44.768619
2.500000	-0.064959	-50.774414	-66.928724	168.322034	-66.928724	168.322034	-0.058775	-45.648149
2.550000	-0.066270	-51.745929	-66.357400	166.950340	-66.357400	166.950340	-0.059973	-46.525928
2.600000	-0.067587	-52.715344	-65.801902	165.557891	-65.801902	165.557891	-0.061177	-47.402013
2.650000	-0.068910	-53.682642	-65.261386	164.146766	-65.261386	164.146766	-0.062387	-48.276388
2.700000	-0.070240	-54.647811	-64.735079	162.718798	-64.735079	162.718798	-0.063604	-49.149038
2.750000	-0.071577	-55.610836	-64.222269	161.275608	-64.222269	161.275608	-0.064828	-50.019949
2.800000	-0.072923	-56.571705	-63.722302	159.818636	-63.722302	159.818636	-0.066059	-50.889108
2.850000	-0.074276	-57.530408	-63.234570	158.349166	-63.234570	158.349166	-0.067298	-51.756503
2.900000	-0.075638	-58.486933	-62.758514	156.868348	-62.758514	156.868348	-0.068545	-52.622121
2.950000	-0.077010	-59.441272	-62.293614	155.377214	-62.293614	155.377214	-0.069801	-53.485952
3.000000	-0.078391	-60.393415	-61.839385	153.876693	-61.839385	153.876693	-0.071066	-54.347984
3.050000	-0.079782	-61.343356	-61.395376	152.367627	-61.395376	152.367627	-0.072339	-55.208207
3.100000	-0.081184	-62.291088	-60.961167	150.850777	-60.961167	150.850777	-0.073623	-56.066613
3.150000	-0.082597	-63.236606	-60.536364	149.326836	-60.536364	149.326836	-0.074917	-56.923194
3.200000	-0.084022	-64.179904	-60.120597	147.796434	-60.120597	147.796434	-0.076221	-57.777940
3.250000	-0.085459	-65.120980	-59.713521	146.260148	-59.713521	146.260148	-0.077536	-58.630845
3.300000	-0.086909	-66.059829	-59.314811	144.718507	-59.314811	144.718507	-0.078862	-59.481903
3.350000	-0.088372	-66.996452	-58.924159	143.171993	-58.924159	143.171993	-0.080201	-60.331108
3.400000	-0.089849	-67.930845	-58.541277	141.621053	-58.541277	141.621053	-0.081551	-61.178453
3.450000	-0.091340	-68.863011	-58.165892	140.066097	-58.165892	140.066097	-0.082915	-62.023936
3.500000	-0.092846	-69.792948	-57.797747	138.507503	-57.797747	138.507503	-0.084291	-62.867551
3.550000	-0.094367	-70.720660	-57.436597	136.945624	-57.436597	136.945624	-0.085681	-63.709296
3.600000	-0.095904	-71.646149	-57.082211	135.380782	-57.082211	135.380782	-0.087085	-64.549168
3.650000	-0.097457	-72.569417	-56.734370	133.813279	-56.734370	133.813279	-0.088504	-65.387165
3.700000	-0.099027	-73.490470	-56.392866	132.243395	-56.392866	132.243395	-0.089938	-66.223285
3.750000	-0.100615	-74.409313	-56.057500	130.671391	-56.057500	130.671391	-0.091387	-67.057528
3.800000	-0.102221	-75.325856	-55.727802	129.097438	-55.727802	129.097438	-0.092852	-67.889812
3.850000	-0.103846	-76.240202	-55.403895	127.521852	-55.403895	127.521852	-0.094334	-68.720219
3.900000	-0.105490	-77.152360	-55.085608	125.944843	-55.085608	125.944843	-0.095833	-69.548750
3.950000	-0.107153	-78.062337	-54.772775	124.366606	-54.772775	124.366606	-0.097350	-70.375407
4.000000	-0.108837	-78.970143	-54.465240	122.787325	-54.465240	122.787325	-0.098884	-71.200193
4.050000	-0.110541	-79.875789	-54.162850	121.207172	-54.162850	121.207172	-0.100437	-72.023110
4.100000	-0.112267	-80.779286	-53.865463	119.626307	-53.865463	119.626307	-0.102008	-72.844162
4.150000	-0.114014	-81.680644	-53.572941	118.044882	-53.572941	118.044882	-0.103599	-73.663352
4.200000	-0.115783	-82.579878	-53.285150	116.463039	-53.285150	116.463039	-0.105210	-74.480687
4.250000	-0.117576	-83.476999	-53.001966	114.880911	-53.001966	114.880911	-0.106841	-75.296169
4.300000	-0.119391	-84.372024	-52.723265	113.298624	-52.723265	113.298624	-0.108492	-76.109807
4.350000	-0.121230	-85.264965	-52.448932	111.716295	-52.448932	111.716295	-0.110165	-76.921605
4.400000	-0.123094	-86.155839	-52.178855	110.134035	-52.178855	110.134035	-0.111860	-77.731571
4.450000	-0.124982	-87.044662	-51.912925	108.551950	-51.912925	108.551950	-0.113577	-78.539713
4.500000	-0.126896	-87.931451	-51.651039	106.970137	-51.651039	106.970137	-0.115317	-79.346037
4.550000	-0.128835	-88.816224	-51.393097	105.388688	-51.393097	105.388688	-0.117080	-80.150553
4.600000	-0.130801	-89.698999	-51.139004	103.807693	-51.139004	103.807693	-0.118867	-80.953270
4.650000	-0.132794	-90.579796	-50.888667	102.227232	-50.888667	102.227232	-0.120678	-81.754198
4.700000	-0.134814	-91.458634	-50.641996	100.647384	-50.641996	100.647384	-0.122514	-82.553346
4.750000	-0.136862	-92.335534	-50.398906	99.068222	-50.398906	99.068222	-0.124375	-83.350725
4.800000	-0.138939	-93.210516	-50.159315	97.489815	-50.159315	97.489815	-0.126262	-84.146346
4.850000	-0.141044	-94.083603	-49.923141	95.912228	-49.923141	95.912228	-0.128174	-84.940220
4.900000	-0.143179	-94.954817	-49.690308	94.335524	-49.690308	94.335524	-0.130114	-85.732361
4.950000	-0.145343	-95.824181	-49.460741	92.759759	-49.460741	92.759759	-0.132080	-86.522780
5.000000	-0.147537	-96.691720	-49.234368	91.184989	-49.234368	91.184989	-0.134074	-87.311491
5.050000	-0.149764	-97.557379	-49.011007	89.611313	-49.011007	89.611313	-0.136098	-88.098434
5.100000	-0.152022	-98.421263	-48.790710	88.038737	-48.790710	88.038737	-0.138150	-88.883698
5.150000	-0.154312	-99.283399	-48.573413	86.467307	-48.573413	86.467307	-0.140230	-89.667296
5.200000	-0.156634	-100.143812	-48.359052	84.897065	-48.359052	84.897065	-0.142341	-90.449245
5.250000	-0.158989	-101.002530	-48.147566	83.328052	-48.147566	83.328052	-0.144481	-91.229560
5.300000	-0.161376	-101.859579	-47.938894	81.760308	-47.938894	81.760308	-0.146652	-92.008256
5.350000	-0.163798	-102.714987	-47.732981	80.193868	-47.732981	80.193868	-0.148854	-92.785351
5.400000	-0.166253	-103.568784	-47.529770	78.628767	-47.529770	78.628767	-0.151087	-93.560860
5.450000	-0.168755	-104.420461	-47.328523	77.065530	-47.328523	77.065530	-0.153362	-94.334265
5.500000	-0.171275	-105.271323	-47.130822	75.503019	-47.130822	75.503019	-0.155655	-95.106859
5.550000	-0.173838	-106.120346	-46.935260	73.942264	-46.935260	73.942264	-0.157988	-95.877596
5.600000	-0.176432	-106.968056	-46.742426	72.382764	-46.742426	72.382764	-0.160349	-96.647009
5.650000	-0.179065	-107.814257	-46.551971	70.824827	-46.551971	70.824827	-0.162746	-97.414872
5.700000	-0.181735	-108.658951	-46.363835	69.268453	-46.363835	69.268453	-0.165178	-98.181187
5.750000	-0.184437	-109.502448	-46.178283	67.713424	-46.178283	67.713424	-0.167640	-98.946247
5.800000	-0.187185	-110.344267	-45.994686	66.160278	-45.994686	66.160278	-0.170144	-99.709550
5.850000	-0.189960	-111.185177	-45.813843	64.608238	-45.813843	64.608238	-0.172673	-100.471880
5.900000	-0.192788	-112.024267	-45.634637	63.058411	-45.634637	63.058411	-0.175251	-101.232263
5.950000	-0.195636	-112.862713	-45.458322	61.509435	-45.458322	61.509435	-0.177849	-101.991940
6.000000	-0.198544	-113.699225	-45.283364	59.963010	-45.283364	59.963010	-0.180503	-102.749496
6.050000	-0.201468	-114.535333	-45.111407	58.417165	-45.111407	58.417165	-0.183171	-103.506598
6.100000	-0.204459	-115.369421	-44.940564	56.874217	-44.940564	56.874217	-0.185903	-104.261426
6.150000	-0.207459	-116.203321	-44.772806	55.331564	-44.772806	55.331564	-0.188643	-105.016035
6.200000	-0.210535	-117.035144	-44.605951	53.792161	-44.605951	53.792161	-0.191454	-105.768236
6.250000	-0.213612	-117.866968	-44.442242	52.252757	-44.442242	52.252757	-0.194267	-106.520437
6.300000	-0.216775	-118.696691	-44.279255	50.716960	-44.279255	50.716960	-0.197160	-107.270115
6.350000	-0.219939	-119.526414	-44.119271	49.181163	-44.119271	49.181163	-0.200054	-108.019794
6.400000	-0.223182	-120.354365	-43.960222	47.648724	-43.960222	47.648724	-0.203023	-108.767259
6.450000	-0.226433	-121.182154	-43.803857	46.116591	-43.803857	46.116591	-0.206001	-109.514523
6.500000	-0.229759	-122.008476	-43.648610	44.587556	-43.648610	44.587556	-0.209048	-110.259868
6.550000	-0.233100	-122.834505	-43.495765	43.059141	-43.495765	43.059141	-0.212110	-111.004829
6.600000	-0.236508	-123.659344	-43.344193	41.533551	-43.344193	41.533551	-0.215236	-111.748149
6.650000	-0.239940	-124.483787	-43.194772	40.008904	-43.194772	40.008904	-0.218385	-112.490922
6.700000	-0.243433	-125.307294	-43.046756	38.486801	-43.046756	38.486801	-0.221591	-113.232315
6.750000	-0.246958	-126.130332	-42.900669	36.965969	-42.900669	36.965969	-0.224828	-113.973018
6.800000	-0.250537	-126.952658	-42.756097	35.447391	-42.756097	35.447391	-0.228117	-114.712584
6.850000	-0.254155	-127.774476	-42.613259	33.930422	-42.613259	33.930422	-0.231443	-115.451339
6.900000	-0.257821	-128.595777	-42.472024	32.415406	-42.472024	32.415406	-0.234816	-116.189181
6.950000	-0.261534	-129.416562	-42.332353	30.902344	-42.332353	30.902344	-0.238233	-116.926112
7.000000	-0.265288	-130.236996	-42.194356	29.390928	-42.194356	29.390928	-0.241690	-117.662335
7.050000	-0.269098	-131.056941	-42.057776	27.881817	-42.057776	27.881817	-0.245201	-118.397569
7.100000	-0.272942	-131.876671	-41.922920	26.374037	-41.922920	26.374037	-0.248744	-119.132282
7.150000	-0.276849	-132.695971	-41.789358	24.868920	-41.789358	24.868920	-0.252349	-119.865950
7.200000	-0.280783	-133.515160	-41.657555	23.364812	-41.657555	23.364812	-0.255979	-120.599261
7.250000	-0.284790	-134.334017	-41.526942	21.863733	-41.526942	21.863733	-0.259681	-121.331498
7.300000	-0.288815	-135.152834	-41.398106	20.363334	-41.398106	20.363334	-0.263400	-122.063520
7.350000	-0.292922	-135.971450	-41.270377	18.866336	-41.270377	18.866336	-0.267199	-122.794463
7.400000	-0.297039	-136.790065	-41.144429	17.369682	-41.144429	17.369682	-0.271007	-123.525309
7.450000	-0.301248	-137.608650	-41.019521	15.876809	-41.019521	15.876809	-0.274905	-124.255098
7.500000	-0.305459	-138.427235	-40.896384	14.383936	-40.896384	14.383936	-0.278805	-124.984887
7.550000	-0.309770	-139.246001	-40.774238	12.895232	-40.774238	12.895232	-0.282804	-125.713666
7.600000	-0.314083	-140.064767	-40.653787	11.406529	-40.653787	11.406529	-0.286804	-126.442444
7.650000	-0.318489	-140.883897	-40.534401	9.921689	-40.534401	9.921689	-0.290897	-127.170431
7.700000	-0.322906	-141.703060	-40.416583	8.437200	-40.416583	8.437200	-0.294999	-127.898346
7.750000	-0.327408	-142.522737	-40.299889	6.956262	-40.299889	6.956262	-0.299187	-128.625666
7.800000	-0.331929	-143.342517	-40.184653	5.476035	-40.184653	5.476035	-0.303393	-129.352867
7.850000	-0.336529	-144.162928	-40.070586	3.999038	-40.070586	3.999038	-0.307676	-130.079647
7.900000	-0.341155	-144.983550	-39.957885	2.523118	-39.957885	2.523118	-0.311987	-130.806286
7.950000	-0.345852	-145.804885	-39.846383	1.050103	-39.846383	1.050103	-0.316368	-131.532656
8.000000	-0.350585	-146.626576	-39.736172	-0.421461	-39.736172	-0.421461	-0.320785	-132.258892
8.050000	-0.355379	-147.449027	-39.627175	-1.890454	-39.627175	-1.890454	-0.325265	-132.984984
8.100000	-0.360219	-148.272021	-39.519412	-3.357612	-39.519412	-3.357612	-0.329790	-133.710974
8.150000	-0.365113	-149.095785	-39.412865	-4.822542	-39.412865	-4.822542	-0.334369	-134.436923
8.200000	-0.370060	-149.920319	-39.307508	-6.285244	-39.307508	-6.285244	-0.339003	-135.162830
8.250000	-0.375053	-150.745594	-39.203359	-7.746068	-39.203359	-7.746068	-0.343683	-135.888773
8.300000	-0.380108	-151.571908	-39.100369	-9.204262	-39.100369	-9.204262	-0.348426	-136.614764
8.350000	-0.385201	-152.398897	-38.998567	-10.660937	-38.998567	-10.660937	-0.353208	-137.340840
8.400000	-0.390365	-153.227236	-38.897907	-12.114571	-38.897907	-12.114571	-0.358064	-138.067085
8.450000	-0.395557	-154.056144	-38.798405	-13.567051	-38.798405	-13.567051	-0.362948	-138.793437
8.500000	-0.400830	-154.886759	-38.700041	-15.016072	-38.700041	-15.016072	-0.367917	-139.520109
8.550000	-0.406123	-155.717795	-38.602792	-16.464313	-38.602792	-16.464313	-0.372905	-140.246880
8.600000	-0.411505	-156.550938	-38.506690	-17.908664	-38.506690	-17.908664	-0.377987	-140.974155
8.650000	-0.416899	-157.384314	-38.411652	-19.352621	-38.411652	-19.352621	-0.383081	-141.701495
8.700000	-0.422390	-158.220245	-38.317779	-20.792247	-38.317779	-20.792247	-0.388278	-142.429552
8.750000	-0.427885	-159.056175	-38.224911	-22.231872	-38.224911	-22.231872	-0.393478	-143.157610
8.800000	-0.433485	-159.895156	-38.133239	-23.666715	-38.133239	-23.666715	-0.398791	-143.886635
8.850000	-0.439089	-160.734136	-38.042524	-25.101557	-38.042524	-25.101557	-0.404108	-144.615659
8.900000	-0.444790	-161.576157	-37.952999	-26.531962	-37.952999	-26.531962	-0.409529	-145.345742
8.950000	-0.450503	-162.418455	-37.864411	-27.961963	-37.864411	-27.961963	-0.414962	-146.075921
9.000000	-0.456304	-163.263742	-37.776997	-29.387881	-37.776997	-29.387881	-0.420492	-146.807222
9.050000	-0.462126	-164.109628	-37.690509	-30.812981	-37.690509	-30.812981	-0.426044	-147.538747
9.100000	-0.468027	-164.958412	-37.605170	-32.234360	-37.605170	-32.234360	-0.431684	-148.271428
9.150000	-0.473958	-165.808162	-37.520758	-33.654499	-37.520758	-33.654499	-0.437355	-149.004493
9.200000	-0.479942	-166.659960	-37.437379	-35.072131	-37.437379	-35.072131	-0.443087	-149.738412
9.250000	-0.485986	-167.514123	-37.355051	-36.486931	-37.355051	-36.486931	-0.448885	-150.473333
9.300000	-0.492081	-168.370380	-37.273732	-37.899298	-37.273732	-37.899298	-0.454742	-151.209166
9.350000	-0.498228	-169.228799	-37.193415	-39.309220	-37.193415	-39.309220	-0.460657	-151.945958
9.400000	-0.504425	-170.089445	-37.114094	-40.716681	-37.114094	-40.716681	-0.466631	-152.683756
9.450000	-0.510674	-170.952385	-37.035763	-42.121666	-37.035763	-42.121666	-0.472663	-153.422609
9.500000	-0.516972	-171.817687	-36.958416	-43.524161	-36.958416	-43.524161	-0.478754	-154.162565
9.550000	-0.523321	-172.685418	-36.882047	-44.924149	-36.882047	-44.924149	-0.484904	-154.903672
9.600000	-0.529720	-173.555646	-36.806650	-46.321617	-36.806650	-46.321617	-0.491113	-155.645981
9.650000	-0.536168	-174.428439	-36.732219	-47.716547	-36.732219	-47.716547	-0.497382	-156.389541
9.700000	-0.542664	-175.303867	-36.658748	-49.108925	-36.658748	-49.108925	-0.503709	-157.134403
9.750000	-0.549210	-176.182000	-36.586233	-50.498735	-36.586233	-50.498735	-0.510097	-157.880616
9.800000	-0.555803	-177.062907	-36.514668	-51.885961	-36.514668	-51.885961	-0.516544	-158.628234
9.850000	-0.562444	-177.946658	-36.444047	-53.270587	-36.444047	-53.270587	-0.523051	-159.377307
9.900000	-0.569131	-178.833324	-36.374366	-54.652596	-36.374366	-54.652596	-0.529617	-160.127888
9.950000	-0.575866	-179.722977	-36.305620	-56.031972	-36.305620	-56.031972	-0.536244	-160.880030
10.000000	-0.582646	179.384312	-36.237804	-57.408699	-36.237804	-57.408699	-0.542930	-161.633785
