! freq	dB(S11)	phase(S11)	dB(S12)	phase(S12)	
!     	dB(S21)	phase(S21)	dB(S22)	phase(S22)	
!S-par simulation data
#  GHz  S  DB  R 50
0.000000	-0.000000	-0.000000	-401.966355	180.000000	-401.966355	180.000000	-0.000000	-0.000000
0.050000	-0.000203	-0.829617	-91.979716	179.126115	-91.979716	179.126115	-0.000163	-1.001140
0.100000	-0.000790	-1.658394	-91.989899	178.104112	-91.989899	178.104112	-0.000647	-2.001795
0.150000	-0.001674	-2.485765	-92.006702	177.103494	-92.006702	177.103494	-0.001412	-3.001579
0.200000	-0.002781	-3.311214	-92.030962	176.094739	-92.030962	176.094739	-0.002438	-4.000020
0.250000	-0.003995	-4.135004	-92.061626	175.070082	-92.061626	175.070082	-0.003640	-4.997135
0.300000	-0.005263	-4.957116	-92.099367	174.021893	-92.099367	174.021893	-0.004986	-5.992706
0.350000	-0.006537	-5.777753	-92.144385	172.943933	-92.144385	172.943933	-0.006431	-6.986700
0.400000	-0.007789	-6.597141	-92.196913	171.829996	-92.196913	171.829996	-0.007936	-7.979146
0.450000	-0.009002	-7.415428	-92.257710	170.670447	-92.257710	170.670447	-0.009469	-8.970026
0.500000	-0.010176	-8.232828	-92.326861	169.458946	-92.326861	169.458946	-0.011004	-9.959496
0.550000	-0.011313	-9.049489	-92.404460	168.189348	-92.404460	168.189348	-0.012524	-10.947704
0.600000	-0.012419	-9.865491	-92.490865	166.853410	-92.490865	166.853410	-0.014021	-11.934746
0.650000	-0.013499	-10.680886	-92.586454	165.442049	-92.586454	165.442049	-0.015489	-12.920706
0.700000	-0.014559	-11.495703	-92.691616	163.945174	-92.691616	163.945174	-0.016925	-13.905656
0.750000	-0.015604	-12.309957	-92.806739	162.351510	-92.806739	162.351510	-0.018330	-14.889650
0.800000	-0.016639	-13.123650	-92.932194	160.648383	-92.932194	160.648383	-0.019705	-15.872731
0.850000	-0.017666	-13.936759	-93.068582	158.816928	-93.068582	158.816928	-0.021051	-16.854900
0.900000	-0.018688	-14.749254	-93.216402	156.834178	-93.216402	156.834178	-0.022372	-17.836147
0.950000	-0.019708	-15.561157	-93.375168	154.689190	-93.375168	154.689190	-0.023672	-18.816537
1.000000	-0.020727	-16.372453	-93.544735	152.360229	-93.544735	152.360229	-0.024954	-19.796069
1.050000	-0.021747	-17.183125	-93.724644	149.822554	-93.724644	149.822554	-0.026221	-20.774737
1.100000	-0.022767	-17.993156	-93.913984	147.048101	-93.913984	147.048101	-0.027475	-21.752530
1.150000	-0.023788	-18.802529	-94.111208	144.005290	-94.111208	144.005290	-0.028720	-22.729436
1.200000	-0.024811	-19.611227	-94.313899	140.659028	-94.313899	140.659028	-0.029956	-23.705435
1.250000	-0.025836	-20.419235	-94.518465	136.971123	-94.518465	136.971123	-0.031186	-24.680511
1.300000	-0.026862	-21.226466	-94.718349	132.860505	-94.718349	132.860505	-0.032411	-25.654550
1.350000	-0.027889	-22.032972	-94.906352	128.321383	-94.906352	128.321383	-0.033633	-26.627620
1.400000	-0.028918	-22.838738	-95.072499	123.319341	-95.072499	123.319341	-0.034854	-27.599700
1.450000	-0.029948	-23.643599	-95.193022	117.736972	-95.193022	117.736972	-0.036073	-28.570565
1.500000	-0.030980	-24.447868	-95.276928	111.774130	-95.276928	111.774130	-0.037291	-29.540633
1.550000	-0.032012	-25.251222	-95.276486	105.295114	-95.276486	105.295114	-0.038511	-30.509465
1.600000	-0.033045	-26.054068	-95.229091	98.529335	-95.229091	98.529335	-0.039731	-31.477611
1.650000	-0.034079	-26.855658	-95.024900	91.326316	-95.024900	91.326316	-0.040953	-32.444051
1.700000	-0.035113	-27.656932	-94.784159	84.046863	-94.784159	84.046863	-0.042177	-33.410060
1.750000	-0.036149	-28.456805	-94.350877	76.721119	-94.350877	76.721119	-0.043403	-34.374160
1.800000	-0.037186	-29.256348	-93.889620	69.468142	-93.889620	69.468142	-0.044631	-35.337807
1.850000	-0.038224	-30.054758	-93.293391	62.509898	-93.293391	62.509898	-0.045863	-36.299903
1.900000	-0.039263	-30.852295	-92.619295	55.895694	-92.619295	55.895694	-0.047098	-37.260802
1.950000	-0.040303	-31.648947	-91.884556	49.671899	-91.884556	49.671899	-0.048336	-38.220487
2.000000	-0.041345	-32.444703	-91.105545	43.851353	-91.105545	43.851353	-0.049578	-39.178941
2.050000	-0.042389	-33.239551	-90.296494	38.421457	-90.296494	38.421457	-0.050823	-40.136149
2.100000	-0.043435	-34.033449	-89.466095	33.363159	-89.466095	33.363159	-0.052073	-41.092053
2.150000	-0.044483	-34.826356	-88.621146	28.642976	-88.621146	28.642976	-0.053327	-42.046597
2.200000	-0.045534	-35.618318	-87.774246	24.195013	-87.774246	24.195013	-0.054586	-42.999848
2.250000	-0.046588	-36.409326	-86.929932	19.976726	-86.929932	19.976726	-0.055850	-43.951793
2.300000	-0.047645	-37.199369	-86.091311	15.947657	-86.091311	15.947657	-0.057119	-44.902419
2.350000	-0.048705	-37.988436	-85.260426	12.070252	-85.260426	12.070252	-0.058393	-45.851715
2.400000	-0.049770	-38.776516	-84.438562	8.310120	-84.438562	8.310120	-0.059673	-46.799669
2.450000	-0.050839	-39.563599	-83.626482	4.635952	-83.626482	4.635952	-0.060959	-47.746270
2.500000	-0.051913	-40.349676	-82.824601	1.019268	-82.824601	1.019268	-0.062252	-48.691510
2.550000	-0.052992	-41.134636	-82.027265	-2.565162	-82.027265	-2.565162	-0.063551	-49.635243
2.600000	-0.054077	-41.918569	-81.240897	-6.145769	-81.240897	-6.145769	-0.064858	-50.577595
2.650000	-0.055167	-42.701464	-80.465585	-9.744122	-80.465585	-9.744122	-0.066172	-51.518557
2.700000	-0.056264	-43.483313	-79.701485	-13.380271	-79.701485	-13.380271	-0.067495	-52.458122
2.750000	-0.057367	-44.264106	-78.948869	-17.072929	-78.948869	-17.072929	-0.068825	-53.396282
2.800000	-0.058478	-45.043835	-78.208172	-20.839591	-78.208172	-20.839591	-0.070164	-54.333033
2.850000	-0.059596	-45.822491	-77.480026	-24.696576	-77.480026	-24.696576	-0.071512	-55.268367
2.900000	-0.060725	-46.599646	-76.748631	-28.705742	-76.748631	-28.705742	-0.072874	-56.201730
2.950000	-0.061857	-47.376448	-76.061352	-32.753644	-76.061352	-32.753644	-0.074239	-57.134633
3.000000	-0.063003	-48.151412	-75.363930	-37.021876	-75.363930	-37.021876	-0.075621	-58.065140
3.050000	-0.064154	-48.925803	-74.702807	-41.366517	-74.702807	-41.366517	-0.077010	-58.994908
3.100000	-0.065318	-49.698763	-74.052324	-45.902180	-74.052324	-45.902180	-0.078413	-59.922826
3.150000	-0.066490	-50.470710	-73.429103	-50.578436	-73.429103	-50.578436	-0.079827	-60.849447
3.200000	-0.067672	-51.241644	-72.830748	-55.395287	-72.830748	-55.395287	-0.081252	-61.774771
3.250000	-0.068867	-52.011116	-72.259407	-60.407341	-72.259407	-60.407341	-0.082694	-62.698240
3.300000	-0.070069	-52.780005	-71.718996	-65.497477	-71.718996	-65.497477	-0.084144	-63.620969
3.350000	-0.071289	-53.546977	-71.213913	-70.810408	-71.213913	-70.810408	-0.085616	-64.541289
3.400000	-0.072515	-54.313504	-70.740183	-76.166406	-70.740183	-76.166406	-0.087095	-65.461054
3.450000	-0.073759	-55.078250	-70.309908	-81.677972	-70.309908	-81.677972	-0.088597	-66.378602
3.500000	-0.075012	-55.842247	-69.913349	-87.226849	-69.913349	-87.226849	-0.090109	-67.295229
3.550000	-0.076280	-56.604899	-69.557249	-92.842885	-69.557249	-92.842885	-0.091640	-68.210200
3.600000	-0.077562	-57.366347	-69.241098	-98.470891	-69.241098	-98.470891	-0.093189	-69.123706
3.650000	-0.078855	-58.126894	-68.954871	-104.107875	-68.954871	-104.107875	-0.094750	-70.036114
3.700000	-0.080169	-58.885778	-68.714293	-109.701678	-68.714293	-109.701678	-0.096338	-70.946521
3.750000	-0.081488	-59.644209	-68.489919	-115.283705	-68.489919	-115.283705	-0.097932	-71.856382
3.800000	-0.082835	-60.400517	-68.313170	-120.753757	-68.313170	-120.753757	-0.099561	-72.763719
3.850000	-0.084188	-61.156369	-68.147320	-126.192769	-68.147320	-126.192769	-0.101198	-73.670521
3.900000	-0.085563	-61.910549	-68.011166	-131.517971	-68.011166	-131.517971	-0.102863	-74.575358
3.950000	-0.086951	-62.663815	-67.887553	-136.776981	-67.887553	-136.776981	-0.104544	-75.479137
4.000000	-0.088357	-63.415862	-67.779418	-141.947736	-67.779418	-141.947736	-0.106247	-76.381504
4.050000	-0.089783	-64.166538	-67.681833	-147.024913	-67.681833	-147.024913	-0.107976	-77.282304
4.100000	-0.091220	-64.916452	-67.590403	-152.050102	-67.590403	-152.050102	-0.109719	-78.182233
4.150000	-0.092685	-65.664538	-67.504439	-156.968717	-67.504439	-156.968717	-0.111497	-79.080104
4.200000	-0.094158	-66.412167	-67.419881	-161.862685	-67.419881	-161.862685	-0.113285	-79.977463
4.250000	-0.095662	-67.157818	-67.333786	-166.667146	-67.333786	-166.667146	-0.115113	-80.872630
4.300000	-0.097177	-67.902861	-67.245921	-171.452731	-67.245921	-171.452731	-0.116954	-81.767134
4.350000	-0.098716	-68.646387	-67.152467	-176.191124	-67.152467	-176.191124	-0.118827	-82.659983
4.400000	-0.100274	-69.388854	-67.052681	179.088642	-67.052681	179.088642	-0.120723	-83.551696
4.450000	-0.101851	-70.130261	-66.946792	174.386567	-66.946792	174.386567	-0.122643	-84.442275
4.500000	-0.103455	-70.870161	-66.828414	169.690883	-66.828414	169.690883	-0.124598	-85.331270
4.550000	-0.105070	-71.609459	-66.706202	164.997755	-66.706202	164.997755	-0.126567	-86.219630
4.600000	-0.106722	-72.346809	-66.564161	160.290616	-66.564161	160.290616	-0.128583	-87.105981
4.650000	-0.108382	-73.083710	-66.418924	155.577343	-66.418924	155.577343	-0.130610	-87.991877
4.700000	-0.110078	-73.818824	-66.253371	150.833721	-66.253371	150.833721	-0.132681	-88.875968
4.750000	-0.111788	-74.553198	-66.080248	146.071519	-66.080248	146.071519	-0.134772	-89.759329
4.800000	-0.113526	-75.286242	-65.891713	141.275873	-65.891713	141.275873	-0.136898	-90.641378
4.850000	-0.115290	-76.018112	-65.688791	136.442962	-65.688791	136.442962	-0.139055	-91.522296
4.900000	-0.117072	-76.749101	-65.477045	131.582102	-65.477045	131.582102	-0.141236	-92.402367
4.950000	-0.118889	-77.478492	-65.243740	126.662005	-65.243740	126.662005	-0.143462	-93.280939
5.000000	-0.120716	-78.207447	-65.009487	121.725753	-65.009487	121.725753	-0.145701	-94.159102
5.050000	-0.122590	-78.934388	-64.746652	116.706490	-64.746652	116.706490	-0.147998	-95.035430
5.100000	-0.124474	-79.660902	-64.483874	111.668275	-64.483874	111.668275	-0.150309	-95.911381
5.150000	-0.126396	-80.385852	-64.201579	106.560574	-64.201579	106.560574	-0.152667	-96.785950
5.200000	-0.128340	-81.109958	-63.913302	101.413516	-63.913302	101.413516	-0.155052	-97.659800
5.250000	-0.130312	-81.832940	-63.615124	96.213982	-63.615124	96.213982	-0.157472	-98.532691
5.300000	-0.132316	-82.554674	-63.306014	90.954641	-63.306014	90.954641	-0.159933	-99.404556
5.350000	-0.134339	-83.275716	-62.996368	85.662073	-62.996368	85.662073	-0.162417	-100.275852
5.400000	-0.136406	-83.995117	-62.672671	80.291065	-62.672671	80.291065	-0.164957	-101.145854
5.450000	-0.138486	-84.714111	-62.354858	74.900815	-62.354858	74.900815	-0.167512	-102.015540
5.500000	-0.140615	-85.431357	-62.025949	69.430348	-62.025949	69.430348	-0.170128	-102.883910
5.550000	-0.142760	-86.148073	-61.703649	63.937995	-61.703649	63.937995	-0.172765	-103.751900
5.600000	-0.144945	-86.863467	-61.379886	58.390926	-61.379886	58.390926	-0.175449	-104.618945
5.650000	-0.147158	-87.577951	-61.061713	52.813248	-61.061713	52.813248	-0.178170	-105.485377
5.700000	-0.149399	-88.291526	-60.748952	47.204962	-60.748952	47.204962	-0.180925	-106.351195
5.750000	-0.151683	-89.003827	-60.443429	41.568240	-60.443429	41.568240	-0.183731	-107.216209
5.800000	-0.153983	-89.715618	-60.146884	35.920145	-60.146884	35.920145	-0.186558	-108.080900
5.850000	-0.156338	-90.425787	-59.861556	30.260124	-59.861556	30.260124	-0.189452	-108.944643
5.900000	-0.158707	-91.135587	-59.586467	24.601772	-59.586467	24.601772	-0.192362	-109.808182
5.950000	-0.161128	-91.843922	-59.325973	18.958944	-59.325973	18.958944	-0.195336	-110.670936
6.000000	-0.163571	-92.551661	-59.077230	13.334146	-59.077230	13.334146	-0.198337	-111.533404
6.050000	-0.166055	-93.258326	-58.842708	7.741802	-58.842708	7.741802	-0.201387	-112.395355
6.100000	-0.168576	-93.964061	-58.622425	2.195836	-58.622425	2.195836	-0.204480	-113.256911
6.150000	-0.171124	-94.669099	-58.413500	-3.315345	-58.413500	-3.315345	-0.207608	-114.118172
6.200000	-0.173723	-95.372890	-58.221104	-8.742351	-58.221104	-8.742351	-0.210796	-114.978984
6.250000	-0.176337	-96.076341	-58.035981	-14.146400	-58.035981	-14.146400	-0.214002	-115.839673
6.300000	-0.179017	-96.778252	-57.868627	-19.424342	-57.868627	-19.424342	-0.217287	-116.699911
6.350000	-0.181713	-97.479842	-57.707024	-24.672952	-57.707024	-24.672952	-0.220590	-117.560079
6.400000	-0.184461	-98.180256	-57.557699	-29.814012	-57.557699	-29.814012	-0.223956	-118.419990
6.450000	-0.187240	-98.880051	-57.414869	-34.895344	-57.414869	-34.895344	-0.227358	-119.279817
6.500000	-0.190059	-99.579017	-57.279561	-39.897039	-57.279561	-39.897039	-0.230807	-120.139530
6.550000	-0.192923	-100.277085	-57.150285	-44.812373	-57.150285	-44.812373	-0.234309	-120.999200
6.600000	-0.195813	-100.974652	-57.025071	-49.679729	-57.025071	-49.679729	-0.237842	-121.858845
6.650000	-0.198765	-101.671063	-56.904261	-54.441572	-56.904261	-54.441572	-0.241446	-122.718549
6.700000	-0.201733	-102.367188	-56.785555	-59.178180	-56.785555	-59.178180	-0.245070	-123.578277
6.750000	-0.204768	-103.062109	-56.668639	-63.815325	-56.668639	-63.815325	-0.248773	-124.438197
6.800000	-0.207826	-103.756675	-56.552608	-68.427389	-56.552608	-68.427389	-0.252501	-125.298216
6.850000	-0.210937	-104.450352	-56.436460	-72.976749	-56.436460	-72.976749	-0.256290	-126.158484
6.900000	-0.214085	-105.143434	-56.319613	-77.492947	-56.319613	-77.492947	-0.260124	-127.018998
6.950000	-0.217272	-105.835921	-56.202115	-81.975983	-56.202115	-81.975983	-0.264002	-127.879759
7.000000	-0.220514	-106.527600	-56.081775	-86.427805	-56.081775	-86.427805	-0.267943	-128.740978
7.050000	-0.223779	-107.218954	-55.961340	-90.867142	-55.961340	-90.867142	-0.271910	-129.602382
7.100000	-0.227115	-107.909310	-55.835617	-95.287290	-55.835617	-95.287290	-0.275960	-130.464523
7.150000	-0.230470	-108.599444	-55.709949	-99.706273	-55.709949	-99.706273	-0.280029	-131.326857
7.200000	-0.233891	-109.288707	-55.578906	-104.127123	-55.578906	-104.127123	-0.284176	-132.190006
7.250000	-0.237342	-109.977628	-55.446594	-108.556663	-55.446594	-108.556663	-0.288355	-133.053553
7.300000	-0.240844	-110.665936	-55.310569	-113.001846	-55.310569	-113.001846	-0.292593	-133.917813
7.350000	-0.244393	-111.353734	-55.171429	-117.472929	-55.171429	-117.472929	-0.296883	-134.782802
7.400000	-0.247977	-112.041149	-55.030634	-121.963438	-55.030634	-121.963438	-0.301213	-135.648337
7.450000	-0.251625	-112.727913	-54.885140	-126.504754	-54.885140	-126.504754	-0.305614	-136.515004
7.500000	-0.255292	-113.414499	-54.740181	-131.059927	-54.740181	-131.059927	-0.310037	-137.381981
7.550000	-0.259041	-114.100323	-54.589455	-135.696879	-54.589455	-135.696879	-0.314549	-138.250569
7.600000	-0.262808	-114.785997	-54.439767	-140.354405	-54.439767	-140.354405	-0.319083	-139.119541
7.650000	-0.266641	-115.471126	-54.287089	-145.087367	-54.287089	-145.087367	-0.323687	-139.989915
7.700000	-0.270511	-116.155986	-54.134640	-149.866014	-54.134640	-149.866014	-0.328332	-140.861130
7.750000	-0.274428	-116.840489	-53.981664	-154.705577	-53.981664	-154.705577	-0.333028	-141.733467
7.800000	-0.278401	-117.524635	-53.828943	-159.617619	-53.828943	-159.617619	-0.337782	-142.607178
7.850000	-0.282404	-118.208584	-53.677554	-164.569929	-53.677554	-164.569929	-0.342568	-143.481653
7.900000	-0.286480	-118.892120	-53.527424	-169.619680	-53.527424	-169.619680	-0.347429	-144.358113
7.950000	-0.290576	-119.575559	-53.379680	-174.693444	-53.379680	-174.693444	-0.352309	-145.235080
8.000000	-0.294751	-120.258621	-53.235090	-179.868246	-53.235090	-179.868246	-0.357267	-146.114352
8.050000	-0.298951	-120.941590	-53.093724	174.928985	-53.093724	174.928985	-0.362248	-146.994377
8.100000	-0.303213	-121.624325	-52.956734	169.656300	-52.956734	169.656300	-0.367287	-147.876281
8.150000	-0.307520	-122.306937	-52.824347	164.343040	-52.824347	164.343040	-0.372365	-148.759555
8.200000	-0.311870	-122.989425	-52.696387	158.989203	-52.696387	158.989203	-0.377481	-149.644199
8.250000	-0.316282	-123.671795	-52.574831	153.592874	-52.574831	153.592874	-0.382657	-150.530831
8.300000	-0.320721	-124.354119	-52.456747	148.179547	-52.456747	148.179547	-0.387858	-151.418257
8.350000	-0.325240	-125.036369	-52.346794	142.734299	-52.346794	142.734299	-0.393165	-152.308270
8.400000	-0.329780	-125.718615	-52.239712	137.285488	-52.239712	137.285488	-0.398511	-153.198914
8.450000	-0.334395	-126.400869	-52.139855	131.830030	-52.139855	131.830030	-0.404020	-154.092147
8.500000	-0.339043	-127.083159	-52.043277	126.381082	-52.043277	126.381082	-0.409622	-154.986766
8.550000	-0.343749	-127.765513	-51.951579	120.943854	-51.951579	120.943854	-0.415384	-155.883878
8.600000	-0.348507	-128.447978	-51.863297	115.530367	-51.863297	115.530367	-0.421251	-156.783751
8.650000	-0.353305	-129.130526	-51.777730	110.134688	-51.777730	110.134688	-0.427197	-157.685694
8.700000	-0.358174	-129.813303	-51.694638	104.786593	-51.694638	104.786593	-0.433195	-158.591554
8.750000	-0.363064	-130.496142	-51.612778	99.451475	-51.612778	99.451475	-0.439210	-159.498481
8.800000	-0.368046	-131.179371	-51.531298	94.190537	-51.531298	94.190537	-0.445252	-160.410163
8.850000	-0.373051	-131.862705	-51.449957	88.947150	-51.449957	88.947150	-0.451307	-161.322852
8.900000	-0.378130	-132.546426	-51.367119	83.768114	-51.367119	83.768114	-0.457395	-162.239232
8.950000	-0.383252	-133.230401	-51.282848	78.624961	-51.282848	78.624961	-0.463511	-163.157684
9.000000	-0.388430	-133.914717	-51.196459	73.529653	-51.196459	73.529653	-0.469664	-164.078898
9.050000	-0.393673	-134.599482	-51.106389	68.485802	-51.106389	68.485802	-0.475866	-165.003364
9.100000	-0.398954	-135.284497	-51.014752	63.470538	-51.014752	63.470538	-0.482098	-165.929636
9.150000	-0.404323	-135.970201	-50.916895	58.516538	-50.916895	58.516538	-0.488400	-166.860461
9.200000	-0.409718	-136.656084	-50.818293	53.576949	-50.818293	53.576949	-0.494724	-167.792443
9.250000	-0.415214	-137.342810	-50.712412	48.691965	-50.712412	48.691965	-0.501126	-168.729602
9.300000	-0.420744	-138.029823	-50.605224	43.819248	-50.605224	43.819248	-0.507556	-169.668431
9.350000	-0.426356	-138.717555	-50.492967	38.977196	-50.492967	38.977196	-0.514049	-170.611433
9.400000	-0.432030	-139.405837	-50.378108	34.147582	-50.378108	34.147582	-0.520588	-171.557491
9.450000	-0.437765	-140.094670	-50.260767	29.330406	-50.260767	29.330406	-0.527172	-172.506605
9.500000	-0.443592	-140.784352	-50.140606	24.517410	-50.140606	24.517410	-0.533818	-173.460277
9.550000	-0.449458	-141.474374	-50.020356	19.706086	-50.020356	19.706086	-0.540492	-174.415773
9.600000	-0.455447	-142.165571	-49.898821	14.883008	-49.898821	14.883008	-0.547244	-175.377450
9.650000	-0.461465	-142.857000	-49.778756	10.056186	-49.778756	10.056186	-0.554015	-176.340339
9.700000	-0.467591	-143.549450	-49.660831	5.207853	-49.660831	5.207853	-0.560850	-177.308538
9.750000	-0.473799	-144.242659	-49.546820	0.338841	-49.546820	0.338841	-0.567732	-178.280677
9.800000	-0.480090	-144.936643	-49.438342	-4.553573	-49.438342	-4.553573	-0.574660	-179.256838
9.850000	-0.486466	-145.631413	-49.337129	-9.470860	-49.337129	-9.470860	-0.581633	179.762890
9.900000	-0.492929	-146.326982	-49.245003	-14.413019	-49.245003	-14.413019	-0.588651	178.778424
9.950000	-0.499479	-147.023359	-49.163836	-19.378373	-49.163836	-19.378373	-0.595713	177.789676
10.000000	-0.506116	-147.720553	-49.095507	-24.363409	-49.095507	-24.363409	-0.602817	176.796559
