! freq	dB(S11)	phase(S11)	dB(S12)	phase(S12)	
!     	dB(S21)	phase(S21)	dB(S22)	phase(S22)	
!S-par simulation data
#  GHz  S  DB  R 50
0.000000	-0.000000	0.000000	-315.286574	0.000000	-315.286574	0.000000	-0.000000	0.000000
0.050000	-0.010951	-1.476570	-88.885452	88.009973	-88.885452	88.009973	-0.010941	-1.476541
0.100000	-0.012549	-2.995914	-82.906815	86.701105	-82.906815	86.701105	-0.012545	-2.995931
0.150000	-0.013225	-4.507084	-79.410215	85.306982	-79.410215	85.306982	-0.013223	-4.507145
0.200000	-0.013862	-6.015252	-76.937335	83.877786	-76.937335	83.877786	-0.013860	-6.015353
0.250000	-0.014584	-7.521524	-75.030238	82.435580	-75.030238	82.435580	-0.014583	-7.521660
0.300000	-0.015422	-9.026230	-73.484058	80.991472	-73.484058	80.991472	-0.015422	-9.026401
0.350000	-0.016375	-10.529556	-72.187868	79.551583	-72.187868	79.551583	-0.016375	-10.529759
0.400000	-0.017456	-12.031249	-71.078779	78.120999	-71.078779	78.120999	-0.017456	-12.031485
0.450000	-0.018639	-13.531488	-70.111203	76.701187	-70.111203	76.701187	-0.018639	-13.531756
0.500000	-0.019938	-15.029839	-69.260050	75.297548	-69.260050	75.297548	-0.019938	-15.030138
0.550000	-0.021327	-16.526487	-68.501334	73.909965	-68.501334	73.909965	-0.021328	-16.526817
0.600000	-0.022809	-18.021095	-67.822138	72.543068	-67.822138	72.543068	-0.022809	-18.021456
0.650000	-0.024369	-19.513666	-67.209742	71.198163	-67.209742	71.198163	-0.024370	-19.514056
0.700000	-0.025999	-21.004087	-66.655214	69.877796	-66.655214	69.877796	-0.026000	-21.004508
0.750000	-0.027695	-22.492126	-66.152468	68.586134	-66.152468	68.586134	-0.027695	-22.492576
0.800000	-0.029440	-23.977955	-65.693607	67.322520	-65.693607	67.322520	-0.029441	-23.978435
0.850000	-0.031236	-25.461058	-65.277101	66.095405	-65.277101	66.095405	-0.031237	-25.461568
0.900000	-0.033067	-26.941835	-64.895470	64.901147	-64.895470	64.901147	-0.033067	-26.942373
0.950000	-0.034931	-28.419752	-64.548545	63.749481	-64.548545	63.749481	-0.034932	-28.420320
1.000000	-0.036819	-29.895098	-64.231050	62.638258	-64.231050	62.638258	-0.036819	-29.895694
1.050000	-0.038725	-31.367591	-63.941897	61.574430	-63.941897	61.574430	-0.038726	-31.368216
1.100000	-0.040645	-32.837221	-63.678565	60.560825	-63.678565	60.560825	-0.040646	-32.837875
1.150000	-0.042573	-34.304040	-63.438496	59.599374	-63.438496	59.599374	-0.042574	-34.304722
1.200000	-0.044506	-35.767707	-63.221493	58.699728	-63.221493	58.699728	-0.044506	-35.768418
1.250000	-0.046439	-37.228635	-63.023529	57.856866	-63.023529	57.856866	-0.046439	-37.229375
1.300000	-0.048368	-38.686126	-62.846289	57.089410	-62.846289	57.089410	-0.048368	-38.686894
1.350000	-0.050293	-40.140790	-62.685209	56.387574	-62.685209	56.387574	-0.050293	-40.141586
1.400000	-0.052209	-41.592101	-62.541018	55.767875	-62.541018	55.767875	-0.052209	-41.592926
1.450000	-0.054117	-43.040326	-62.411039	55.227878	-62.411039	55.227878	-0.054117	-43.041179
1.500000	-0.056013	-44.485304	-62.294307	54.776203	-62.294307	54.776203	-0.056013	-44.486185
1.550000	-0.057898	-45.926937	-62.189538	54.420018	-62.189538	54.420018	-0.057897	-45.927846
1.600000	-0.059770	-47.365447	-62.094443	54.157219	-62.094443	54.157219	-0.059770	-47.366384
1.650000	-0.061629	-48.800357	-62.008457	54.006769	-62.008457	54.006769	-0.061628	-48.801322
1.700000	-0.063474	-50.231829	-61.929146	53.968129	-61.929146	53.968129	-0.063473	-50.232821
1.750000	-0.065307	-51.660114	-61.854221	54.036306	-61.854221	54.036306	-0.065306	-51.661135
1.800000	-0.067127	-53.084998	-61.781995	54.221062	-61.781995	54.221062	-0.067126	-53.086046
1.850000	-0.068936	-54.506459	-61.710267	54.524872	-61.710267	54.524872	-0.068935	-54.507534
1.900000	-0.070733	-55.924479	-61.636695	54.948867	-61.636695	54.948867	-0.070732	-55.925582
1.950000	-0.072519	-57.339045	-61.558813	55.492499	-61.558813	55.492499	-0.072518	-57.340175
2.000000	-0.074296	-58.750142	-61.474063	56.153223	-61.474063	56.153223	-0.074294	-58.751299
2.050000	-0.076064	-60.157761	-61.379842	56.926191	-61.379842	56.926191	-0.076062	-60.158945
2.100000	-0.077824	-61.561893	-61.273569	57.804012	-61.273569	57.804012	-0.077822	-61.563104
2.150000	-0.079578	-62.962533	-61.152761	58.776604	-61.152761	58.776604	-0.079576	-62.963771
2.200000	-0.081326	-64.359679	-61.015123	59.831172	-61.015123	59.831172	-0.081324	-64.360943
2.250000	-0.083071	-65.753330	-60.858645	60.952361	-60.858645	60.952361	-0.083069	-65.754621
2.300000	-0.084812	-67.143489	-60.681690	62.122574	-60.681690	62.122574	-0.084810	-67.144806
2.350000	-0.086552	-68.530162	-60.483074	63.322473	-60.483074	63.322473	-0.086550	-68.531505
2.400000	-0.088292	-69.913355	-60.262125	64.531625	-60.262125	64.531625	-0.088289	-69.914725
2.450000	-0.090032	-71.293081	-60.018711	65.729254	-60.018711	65.729254	-0.090030	-71.294476
2.500000	-0.091775	-72.669352	-59.753232	66.895018	-59.753232	66.895018	-0.091772	-72.670773
2.550000	-0.093521	-74.042036	-59.465284	68.006727	-59.465284	68.006727	-0.093519	-74.043483
2.600000	-0.095273	-75.411303	-59.157540	69.048748	-59.157540	69.048748	-0.095270	-75.412776
2.650000	-0.097030	-76.777175	-58.831727	70.006433	-58.831727	70.006433	-0.097027	-76.778673
2.700000	-0.098795	-78.139678	-58.489819	70.867775	-58.489819	70.867775	-0.098792	-78.141201
2.750000	-0.100569	-79.498839	-58.133931	71.623483	-58.133931	71.623483	-0.100565	-79.500388
2.800000	-0.102352	-80.854689	-57.766238	72.266920	-57.766238	72.266920	-0.102348	-80.856263
2.850000	-0.104146	-82.207261	-57.388890	72.793909	-57.388890	72.793909	-0.104142	-82.208861
2.900000	-0.105952	-83.556593	-57.003957	73.202465	-57.003957	73.202465	-0.105948	-83.558218
2.950000	-0.107772	-84.902723	-56.613377	73.492480	-56.613377	73.492480	-0.107767	-84.904373
3.000000	-0.109605	-86.245692	-56.218932	73.665394	-56.218932	73.665394	-0.109601	-86.247368
3.050000	-0.111454	-87.585547	-55.822229	73.723872	-55.822229	73.723872	-0.111449	-87.587248
3.100000	-0.113319	-88.922334	-55.424692	73.671515	-55.424692	73.671515	-0.113315	-88.924060
3.150000	-0.115202	-90.256104	-55.027566	73.512591	-55.027566	73.512591	-0.115197	-90.257855
3.200000	-0.117103	-91.586908	-54.631927	73.251820	-54.631927	73.251820	-0.117098	-91.588685
3.250000	-0.119023	-92.914804	-54.238687	72.894183	-54.238687	72.894183	-0.119018	-92.916606
3.300000	-0.120964	-94.239849	-53.848616	72.444777	-53.848616	72.444777	-0.120958	-94.241676
3.350000	-0.122926	-95.562103	-53.462351	71.908700	-53.462351	71.908700	-0.122920	-95.563956
3.400000	-0.124910	-96.881631	-53.080413	71.290962	-53.080413	71.290962	-0.124903	-96.883510
3.450000	-0.126916	-98.198498	-52.703222	70.596421	-52.703222	70.596421	-0.126910	-98.200403
3.500000	-0.128947	-99.512773	-52.331109	69.829738	-52.331109	69.829738	-0.128940	-99.514703
3.550000	-0.131002	-100.824527	-51.964329	68.995348	-51.964329	68.995348	-0.130995	-100.826483
3.600000	-0.133082	-102.133833	-51.603071	68.097440	-51.603071	68.097440	-0.133075	-102.135815
3.650000	-0.135189	-103.440767	-51.247469	67.139952	-51.247469	67.139952	-0.135181	-103.442776
3.700000	-0.137322	-104.745408	-50.897610	66.126565	-50.897610	66.126565	-0.137314	-104.747443
3.750000	-0.139484	-106.047836	-50.553543	65.060711	-50.553543	65.060711	-0.139475	-106.049898
3.800000	-0.141675	-107.348047	-50.214970	63.943572	-50.214970	63.943572	-0.141666	-107.350135
3.850000	-0.143895	-108.646221	-49.882225	62.780348	-49.882225	62.780348	-0.143886	-108.648337
3.900000	-0.146145	-109.942448	-49.555267	61.573733	-49.555267	61.573733	-0.146135	-109.944591
3.950000	-0.148425	-111.236818	-49.234040	60.326214	-49.234040	60.326214	-0.148416	-111.238988
4.000000	-0.150737	-112.529423	-48.918468	59.040076	-48.918468	59.040076	-0.150727	-112.531620
4.050000	-0.153081	-113.820358	-48.608467	57.717417	-48.608467	57.717417	-0.153070	-113.822583
4.100000	-0.155457	-115.109720	-48.303940	56.360162	-48.303940	56.360162	-0.155446	-115.111974
4.150000	-0.157866	-116.397610	-48.004785	54.970067	-48.004785	54.970067	-0.157855	-116.399892
4.200000	-0.160309	-117.684128	-47.710891	53.548736	-47.710891	53.548736	-0.160298	-117.686438
4.250000	-0.162787	-118.969377	-47.422143	52.097627	-47.422143	52.097627	-0.162776	-118.971717
4.300000	-0.165300	-120.253465	-47.138422	50.618064	-47.138422	50.618064	-0.165288	-120.255834
4.350000	-0.167848	-121.536499	-46.859607	49.111239	-46.859607	49.111239	-0.167836	-121.538898
4.400000	-0.170432	-122.818589	-46.585573	47.578228	-46.585573	47.578228	-0.170420	-122.821018
4.450000	-0.173054	-124.099848	-46.316195	46.019991	-46.316195	46.019991	-0.173041	-124.102306
4.500000	-0.175712	-125.380389	-46.051345	44.437381	-46.051345	44.437381	-0.175699	-125.382878
4.550000	-0.178409	-126.660330	-45.790894	42.831149	-45.790894	42.831149	-0.178395	-126.662850
4.600000	-0.181144	-127.939789	-45.534713	41.201947	-45.534713	41.201947	-0.181130	-127.942341
4.650000	-0.183918	-129.218888	-45.282673	39.550336	-45.282673	39.550336	-0.183904	-129.221471
4.700000	-0.186732	-130.497749	-45.034641	37.876787	-45.034641	37.876787	-0.186717	-130.500364
4.750000	-0.189586	-131.776497	-44.790485	36.181683	-44.790485	36.181683	-0.189571	-131.779145
4.800000	-0.192480	-133.055261	-44.550074	34.465323	-44.550074	34.465323	-0.192466	-133.057941
4.850000	-0.195416	-134.334169	-44.313271	32.727924	-44.313271	32.727924	-0.195401	-134.336883
4.900000	-0.198394	-135.613355	-44.079942	30.969620	-44.079942	30.969620	-0.198379	-135.616102
4.950000	-0.201415	-136.892952	-43.849948	29.190465	-43.849948	29.190465	-0.201399	-136.895733
5.000000	-0.204478	-138.173097	-43.623149	27.390434	-43.623149	27.390434	-0.204462	-138.175912
5.050000	-0.207587	-139.453966	-43.399281	25.568496	-43.399281	25.568496	-0.207571	-139.456816
5.100000	-0.210741	-140.735678	-43.178316	23.725359	-43.178316	23.725359	-0.210724	-140.738563
5.150000	-0.213939	-142.018377	-42.960103	21.860736	-42.960103	21.860736	-0.213922	-142.021298
5.200000	-0.217183	-143.302211	-42.744484	19.974256	-42.744484	19.974256	-0.217165	-143.305168
5.250000	-0.220473	-144.587330	-42.531294	18.065458	-42.531294	18.065458	-0.220455	-144.590323
5.300000	-0.223810	-145.873888	-42.320362	16.133787	-42.320362	16.133787	-0.223791	-145.876918
5.350000	-0.227194	-147.162041	-42.111510	14.178592	-42.111510	14.178592	-0.227175	-147.165108
5.400000	-0.230627	-148.451950	-41.904550	12.199119	-41.904550	12.199119	-0.230608	-148.455055
5.450000	-0.234109	-149.743779	-41.699280	10.194505	-41.699280	10.194505	-0.234089	-149.746921
5.500000	-0.237641	-151.037693	-41.495489	8.163770	-41.495489	8.163770	-0.237621	-151.040874
5.550000	-0.241224	-152.333866	-41.292949	6.105812	-41.292949	6.105812	-0.241203	-152.337085
5.600000	-0.244858	-153.632474	-41.091415	4.019395	-41.091415	4.019395	-0.244837	-153.635731
5.650000	-0.248546	-154.933697	-40.890624	1.903141	-40.890624	1.903141	-0.248525	-154.936993
5.700000	-0.252288	-156.237722	-40.690287	-0.244487	-40.690287	-0.244487	-0.252266	-156.241057
5.750000	-0.256086	-157.544742	-40.490090	-2.425190	-40.490090	-2.425190	-0.256063	-157.548116
5.800000	-0.259940	-158.854954	-40.289690	-4.640856	-40.289690	-4.640856	-0.259917	-158.858368
5.850000	-0.263853	-160.168567	-40.088706	-6.893574	-40.088706	-6.893574	-0.263829	-160.172019
5.900000	-0.267827	-161.485794	-39.886718	-9.185651	-39.886718	-9.185651	-0.267802	-161.489285
5.950000	-0.271863	-162.806860	-39.683257	-11.519639	-39.683257	-11.519639	-0.271838	-162.810390
6.000000	-0.275965	-164.132000	-39.477799	-13.898354	-39.477799	-13.898354	-0.275939	-164.135567
6.050000	-0.280135	-165.461461	-39.269758	-16.324906	-39.269758	-16.324906	-0.280108	-165.465066
6.100000	-0.284376	-166.795504	-39.058470	-18.802730	-39.058470	-18.802730	-0.284349	-166.799146
6.150000	-0.288693	-168.134409	-38.843185	-21.335621	-38.843185	-21.335621	-0.288665	-168.138086
6.200000	-0.293091	-169.478473	-38.623052	-23.927773	-38.623052	-23.927773	-0.293061	-169.482185
6.250000	-0.297574	-170.828018	-38.397098	-26.583822	-38.397098	-26.583822	-0.297543	-170.831762
6.300000	-0.302155	-172.183665	-38.163564	-29.312171	-38.163564	-29.312171	-0.302123	-172.187439
6.350000	-0.306838	-173.545562	-37.921629	-32.115809	-37.921629	-32.115809	-0.306805	-173.549364
6.400000	-0.311634	-174.914141	-37.669768	-35.001134	-37.669768	-35.001134	-0.311599	-174.917968
6.450000	-0.316557	-176.289884	-37.406201	-37.975253	-37.406201	-37.975253	-0.316520	-176.293732
6.500000	-0.321623	-177.673338	-37.128855	-41.046076	-37.128855	-41.046076	-0.321584	-177.677202
6.550000	-0.326852	-179.065130	-36.835297	-44.222422	-36.835297	-44.222422	-0.326812	-179.069004
6.600000	-0.332274	179.534009	-36.522659	-47.514162	-36.522659	-47.514162	-0.332231	179.530131
6.650000	-0.337923	178.123216	-36.187549	-50.932382	-36.187549	-50.932382	-0.337877	178.119343
6.700000	-0.343813	176.702675	-35.830614	-54.474251	-35.830614	-54.474251	-0.343764	176.698817
6.750000	-0.350059	175.269062	-35.439465	-58.180348	-35.439465	-58.180348	-0.350006	175.265232
6.800000	-0.356728	173.821568	-35.010926	-62.057493	-35.010926	-62.057493	-0.356671	173.817782
6.850000	-0.363946	172.358120	-34.537531	-66.125977	-34.537531	-66.125977	-0.363883	172.354400
6.900000	-0.371863	170.876690	-34.013006	-70.402670	-34.013006	-70.402670	-0.371793	170.873060
6.950000	-0.380731	169.373807	-33.426381	-74.917348	-33.426381	-74.917348	-0.380652	169.370301
7.000000	-0.390982	167.843904	-32.759847	-79.716624	-32.759847	-79.716624	-0.390892	167.840568
7.050000	-0.403109	166.282517	-32.005390	-84.829861	-32.005390	-84.829861	-0.403003	166.279408
7.100000	-0.418170	164.679138	-31.134746	-90.340073	-31.134746	-90.340073	-0.418043	164.676337
7.150000	-0.437895	163.020215	-30.118819	-96.351605	-30.118819	-96.351605	-0.437737	163.017837
7.200000	-0.465314	161.286587	-28.923966	-103.021492	-28.923966	-103.021492	-0.465108	161.284795
7.250000	-0.506820	159.445964	-27.492073	-110.650974	-27.492073	-110.650974	-0.506538	159.445005
7.300000	-0.576164	157.453110	-25.750738	-119.789004	-25.750738	-119.789004	-0.575743	157.453361
7.350000	-0.707371	155.262816	-23.600877	-131.599527	-23.600877	-131.599527	-0.706672	155.264829
7.400000	-0.989557	153.019366	-20.976235	-148.729114	-20.976235	-148.729114	-0.988214	153.023554
7.450000	-1.568791	152.355351	-18.256511	-176.746806	-18.256511	-176.746806	-1.565954	152.358280
7.500000	-1.826886	156.725977	-17.435191	142.425410	-17.435191	142.425410	-1.823275	156.713219
7.550000	-1.207373	158.211900	-19.529871	107.426718	-19.529871	107.426718	-1.205452	158.191562
7.600000	-0.810695	156.169894	-22.230081	86.006964	-22.230081	86.006964	-0.809758	156.151159
7.650000	-0.640040	153.817457	-24.517988	72.111855	-24.517988	72.111855	-0.639509	153.800736
7.700000	-0.561661	151.655521	-26.348841	61.854041	-26.348841	61.854041	-0.561318	151.640218
7.750000	-0.522113	149.663369	-27.823466	53.530284	-27.823466	53.530284	-0.521870	149.649019
7.800000	-0.500995	147.785680	-29.027522	46.372224	-29.027522	46.372224	-0.500810	147.771977
7.850000	-0.489594	145.982989	-30.021699	39.998567	-30.021699	39.998567	-0.489446	145.969725
7.900000	-0.483694	144.229103	-30.852801	34.194659	-30.852801	34.194659	-0.483570	144.216138
7.950000	-0.481139	142.507327	-31.553997	28.835624	-31.553997	28.835624	-0.481033	142.494558
8.000000	-0.480734	140.806635	-32.149831	23.842854	-32.149831	23.842854	-0.480641	140.793986
8.050000	-0.481778	139.119524	-32.658543	19.164966	-32.658543	19.164966	-0.481694	139.106938
8.100000	-0.483810	137.440493	-33.097140	14.757275	-33.097140	14.757275	-0.483733	137.427924
8.150000	-0.486566	135.765840	-33.475436	10.596453	-33.475436	10.596453	-0.486495	135.753251
8.200000	-0.489851	134.092617	-33.803584	6.657941	-33.803584	6.657941	-0.489784	134.079978
8.250000	-0.493527	132.418641	-34.090254	2.919466	-34.090254	2.919466	-0.493464	132.405926
8.300000	-0.497503	130.742264	-34.341910	-0.635732	-34.341910	-0.635732	-0.497443	130.729452
8.350000	-0.501727	129.061768	-34.561408	-4.008869	-34.561408	-4.008869	-0.501669	129.048838
8.400000	-0.506116	127.376971	-34.758972	-7.242019	-34.758972	-7.242019	-0.506059	127.363908
8.450000	-0.510651	125.686664	-34.935008	-10.330291	-34.935008	-10.330291	-0.510597	125.673453
8.500000	-0.515306	123.990174	-35.092731	-13.283833	-35.092731	-13.283833	-0.515254	123.976801
8.550000	-0.520057	122.286956	-35.234855	-16.111687	-35.234855	-16.111687	-0.520006	122.273409
8.600000	-0.524887	120.576565	-35.363673	-18.821911	-35.363673	-18.821911	-0.524837	120.562833
8.650000	-0.529781	118.858641	-35.481130	-21.421688	-35.481130	-21.421688	-0.529732	118.844713
8.700000	-0.534729	117.132889	-35.588877	-23.917405	-35.588877	-23.917405	-0.534681	117.118754
8.750000	-0.539720	115.399072	-35.688317	-26.314732	-35.688317	-26.314732	-0.539673	115.384722
8.800000	-0.544749	113.656637	-35.780342	-28.614837	-35.780342	-28.614837	-0.544702	113.642062
8.850000	-0.549807	111.905797	-35.866353	-30.826347	-35.866353	-30.826347	-0.549762	111.890989
8.900000	-0.554891	110.146450	-35.947189	-32.953083	-35.947189	-32.953083	-0.554846	110.131400
8.950000	-0.559995	108.378526	-36.023559	-34.998383	-36.023559	-34.998383	-0.559950	108.363226
9.000000	-0.565115	106.602456	-36.096284	-36.969318	-36.096284	-36.969318	-0.565072	106.586899
9.050000	-0.570251	104.817385	-36.165424	-38.860718	-36.165424	-38.860718	-0.570208	104.801564
9.100000	-0.575399	103.023702	-36.231598	-40.678186	-36.231598	-40.678186	-0.575357	103.007609
9.150000	-0.580558	101.221447	-36.295139	-42.423527	-36.295139	-42.423527	-0.580516	101.205076
9.200000	-0.585726	99.410683	-36.356306	-44.098243	-36.356306	-44.098243	-0.585685	99.394027
9.250000	-0.590902	97.591495	-36.415293	-45.703559	-36.415293	-45.703559	-0.590862	97.574547
9.300000	-0.596086	95.763990	-36.472234	-47.240453	-36.472234	-47.240453	-0.596046	95.746745
9.350000	-0.601278	93.928297	-36.527201	-48.709677	-36.527201	-48.709677	-0.601239	93.910748
9.400000	-0.606478	92.084478	-36.580191	-50.111061	-36.580191	-50.111061	-0.606439	92.066619
9.450000	-0.611685	90.232707	-36.631165	-51.444995	-36.631165	-51.444995	-0.611647	90.214532
9.500000	-0.616902	88.373261	-36.680059	-52.712434	-36.680059	-52.712434	-0.616864	88.354765
9.550000	-0.622128	86.506348	-36.726732	-53.913488	-36.726732	-53.913488	-0.622090	86.487525
9.600000	-0.627365	84.632193	-36.770991	-55.048176	-36.770991	-55.048176	-0.627328	84.613038
9.650000	-0.632615	82.751040	-36.812595	-56.116459	-36.812595	-56.116459	-0.632578	82.731548
9.700000	-0.637879	80.863152	-36.851247	-57.118270	-36.851247	-57.118270	-0.637843	80.843318
9.750000	-0.643160	78.968807	-36.886603	-58.053552	-36.886603	-58.053552	-0.643124	78.948626
9.800000	-0.648459	77.068301	-36.918263	-58.922296	-36.918263	-58.922296	-0.648424	77.047768
9.850000	-0.653779	75.161946	-36.945778	-59.724581	-36.945778	-59.724581	-0.653744	75.141057
9.900000	-0.659124	73.250070	-36.968645	-60.460623	-36.968645	-60.460623	-0.659089	73.228821
9.950000	-0.664495	71.333017	-36.986313	-61.130822	-36.986313	-61.130822	-0.664461	71.311403
10.000000	-0.669897	69.411144	-36.998178	-61.735814	-36.998178	-61.735814	-0.669863	69.389162
