! freq	dB(S11)	phase(S11)	dB(S12)	phase(S12)	
!     	dB(S21)	phase(S21)	dB(S22)	phase(S22)	
!S-par simulation data
#  GHz  S  DB  R 50
0.000000	-0.000000	0.000000	-379.494864	0.000000	-379.494864	0.000000	-0.000000	0.000000
0.050000	-0.001370	-1.651307	-119.818302	88.566196	-119.818302	88.566196	-0.001171	-1.417133
0.100000	-0.004346	-3.291647	-113.964268	87.271696	-113.964268	87.271696	-0.003733	-2.824954
0.150000	-0.007420	-4.922058	-110.708370	86.126786	-110.708370	86.126786	-0.006397	-4.224224
0.200000	-0.010046	-6.547371	-108.600903	85.192238	-108.600903	85.192238	-0.008674	-5.619027
0.250000	-0.012287	-8.170997	-107.174255	84.556810	-107.174255	84.556810	-0.010609	-7.012327
0.300000	-0.014271	-9.794065	-106.239773	84.363897	-106.239773	84.363897	-0.012310	-8.405129
0.350000	-0.016103	-11.416884	-105.723986	84.863969	-105.723986	84.863969	-0.013867	-9.797719
0.400000	-0.017859	-13.039364	-105.600971	86.504041	-105.600971	86.504041	-0.015349	-11.190031
0.450000	-0.019590	-14.661320	-105.837223	89.918140	-105.837223	89.918140	-0.016802	-12.581908
0.500000	-0.021321	-16.282540	-106.409177	96.247693	-106.409177	96.247693	-0.018250	-13.973167
0.550000	-0.023072	-17.902742	-107.173256	107.851685	-107.173256	107.851685	-0.019713	-15.363568
0.600000	-0.024854	-19.521746	-107.497856	126.571954	-107.497856	126.571954	-0.021199	-16.752951
0.650000	-0.026671	-21.139429	-106.511456	149.376102	-106.511456	149.376102	-0.022716	-18.141208
0.700000	-0.028525	-22.755637	-104.160959	168.518449	-104.160959	168.518449	-0.024266	-19.528199
0.750000	-0.030420	-24.370148	-101.277611	-179.659635	-101.277611	-179.659635	-0.025853	-20.913728
0.800000	-0.032350	-25.983048	-98.554550	-172.810089	-98.554550	-172.810089	-0.027471	-22.297860
0.850000	-0.034318	-27.593926	-96.032403	-169.514755	-96.032403	-169.514755	-0.029126	-23.680231
0.900000	-0.036316	-29.203056	-93.803068	-167.936605	-93.803068	-167.936605	-0.030808	-25.061071
0.950000	-0.038343	-30.810026	-91.767231	-167.641033	-91.767231	-167.641033	-0.032521	-26.440007
1.000000	-0.040394	-32.415042	-89.928785	-168.075868	-89.928785	-168.075868	-0.034257	-27.817211
1.050000	-0.042467	-34.017888	-88.237556	-169.051986	-88.237556	-169.051986	-0.036016	-29.192479
1.100000	-0.044556	-35.618555	-86.674737	-170.407744	-86.674737	-170.407744	-0.037793	-30.565792
1.150000	-0.046658	-37.217086	-85.226396	-172.031125	-85.226396	-172.031125	-0.039585	-31.937174
1.200000	-0.048770	-38.813228	-83.864700	-173.877919	-83.864700	-173.877919	-0.041389	-33.306383
1.250000	-0.050889	-40.407301	-82.596093	-175.872507	-82.596093	-175.872507	-0.043202	-34.673698
1.300000	-0.053012	-41.998791	-81.387879	-178.010728	-81.387879	-178.010728	-0.045023	-36.038629
1.350000	-0.055136	-43.588168	-80.253334	179.758229	-80.253334	179.758229	-0.046846	-37.401596
1.400000	-0.057258	-45.175056	-79.171605	177.438447	-79.171605	177.438447	-0.048672	-38.762232
1.450000	-0.059378	-46.759668	-78.145093	175.052267	-78.145093	175.052267	-0.050497	-40.120719
1.500000	-0.061493	-48.341905	-77.165834	172.608852	-77.165834	172.608852	-0.052320	-41.476945
1.550000	-0.063603	-49.921716	-76.228750	170.116576	-76.228750	170.116576	-0.054139	-42.830842
1.600000	-0.065705	-51.499283	-75.334584	167.586422	-75.334584	167.586422	-0.055953	-44.182565
1.650000	-0.067799	-53.074286	-74.473115	165.019783	-74.473115	165.019783	-0.057761	-45.531781
1.700000	-0.069885	-54.646870	-73.645120	162.424530	-73.645120	162.424530	-0.059563	-46.878606
1.750000	-0.071964	-56.217237	-72.851660	159.807039	-72.851660	159.807039	-0.061357	-48.223215
1.800000	-0.074033	-57.785260	-72.087833	157.169386	-72.087833	157.169386	-0.063144	-49.565461
1.850000	-0.076095	-59.350955	-71.351702	154.514834	-71.351702	154.514834	-0.064923	-50.905332
1.900000	-0.078149	-60.914340	-70.641528	151.846209	-70.641528	151.846209	-0.066694	-52.242815
1.950000	-0.080195	-62.475435	-69.955734	149.165976	-69.955734	149.165976	-0.068458	-53.577904
2.000000	-0.082236	-64.034264	-69.292890	146.476291	-69.292890	146.476291	-0.070214	-54.910591
2.050000	-0.084270	-65.590854	-68.651688	143.779045	-68.651688	143.779045	-0.071964	-56.240870
2.100000	-0.086299	-67.145235	-68.030930	141.075903	-68.030930	141.075903	-0.073708	-57.568737
2.150000	-0.088325	-68.697440	-67.429512	138.368325	-67.429512	138.368325	-0.075447	-58.894190
2.200000	-0.090348	-70.247505	-66.846416	135.657595	-66.846416	135.657595	-0.077180	-60.217228
2.250000	-0.092370	-71.795469	-66.280697	132.944835	-66.280697	132.944835	-0.078911	-61.537851
2.300000	-0.094391	-73.341375	-65.731478	130.231022	-65.731478	130.231022	-0.080638	-62.856063
2.350000	-0.096414	-74.885268	-65.197943	127.517002	-65.197943	127.517002	-0.082364	-64.171867
2.400000	-0.098439	-76.427198	-64.679328	124.803499	-64.679328	124.803499	-0.084090	-65.485268
2.450000	-0.100467	-77.967217	-64.174920	122.091128	-64.174920	122.091128	-0.085815	-66.796274
2.500000	-0.102501	-79.505379	-63.684051	119.380400	-63.684051	119.380400	-0.087543	-68.104894
2.550000	-0.104542	-81.041668	-63.205516	116.671836	-63.205516	116.671836	-0.089274	-69.411034
2.600000	-0.106591	-82.576228	-62.739368	113.965682	-62.739368	113.965682	-0.091009	-70.714812
2.650000	-0.108650	-84.109124	-62.285046	111.262177	-62.285046	111.262177	-0.092750	-72.016240
2.700000	-0.110719	-85.640426	-61.842023	108.561487	-61.842023	108.561487	-0.094498	-73.315334
2.750000	-0.112802	-87.170206	-61.409804	105.863708	-61.409804	105.863708	-0.096254	-74.612113
2.800000	-0.114898	-88.698540	-60.987924	103.168878	-60.987924	103.168878	-0.098019	-75.906594
2.850000	-0.117009	-90.225507	-60.575943	100.476977	-60.575943	100.476977	-0.099795	-77.198799
2.900000	-0.119138	-91.751190	-60.173452	97.787935	-60.173452	97.787935	-0.101582	-78.488750
2.950000	-0.121284	-93.275677	-59.780062	95.101637	-59.780062	95.101637	-0.103383	-79.776470
3.000000	-0.123450	-94.799055	-59.395412	92.417928	-59.395412	92.417928	-0.105198	-81.061987
3.050000	-0.125636	-96.321419	-59.019161	89.736616	-59.019161	89.736616	-0.107028	-82.345328
3.100000	-0.127845	-97.842865	-58.650989	87.057483	-58.650989	87.057483	-0.108875	-83.626521
3.150000	-0.130076	-99.363494	-58.290598	84.380282	-58.290598	84.380282	-0.110740	-84.905599
3.200000	-0.132333	-100.883408	-57.937709	81.704747	-57.937709	81.704747	-0.112624	-86.182594
3.250000	-0.134615	-102.402716	-57.592060	79.030596	-57.592060	79.030596	-0.114528	-87.457541
3.300000	-0.136924	-103.921528	-57.253408	76.357535	-57.253408	76.357535	-0.116453	-88.730477
3.350000	-0.139262	-105.439957	-56.921527	73.685263	-56.921527	73.685263	-0.118400	-90.001439
3.400000	-0.141628	-106.958122	-56.596207	71.013476	-56.596207	71.013476	-0.120370	-91.270469
3.450000	-0.144025	-108.476143	-56.277252	68.341872	-56.277252	68.341872	-0.122365	-92.537606
3.500000	-0.146454	-109.994145	-55.964481	65.670153	-55.964481	65.670153	-0.124384	-93.802896
3.550000	-0.148915	-111.512256	-55.657728	62.998030	-55.657728	62.998030	-0.126429	-95.066383
3.600000	-0.151409	-113.030608	-55.356839	60.325226	-55.356839	60.325226	-0.128502	-96.328115
3.650000	-0.153937	-114.549334	-55.061673	57.651481	-55.061673	57.651481	-0.130602	-97.588140
3.700000	-0.156501	-116.068575	-54.772098	54.976553	-54.772098	54.976553	-0.132730	-98.846508
3.750000	-0.159101	-117.588471	-54.487997	52.300221	-54.487997	52.300221	-0.134888	-100.103273
3.800000	-0.161740	-119.109210	-54.209107	49.622212	-54.209107	49.622212	-0.137077	-101.358422
3.850000	-0.164416	-120.630912	-53.935503	46.942424	-53.935503	46.942424	-0.139297	-102.612082
3.900000	-0.167132	-122.153731	-53.667092	44.260721	-53.667092	44.260721	-0.141548	-103.864311
3.950000	-0.169886	-123.677822	-53.403792	41.576999	-53.403792	41.576999	-0.143832	-105.115167
4.000000	-0.172681	-125.203345	-53.145525	38.891189	-53.145525	38.891189	-0.146148	-106.364711
4.050000	-0.175516	-126.730463	-52.892221	36.203254	-52.892221	36.203254	-0.148498	-107.613007
4.100000	-0.178393	-128.259342	-52.643815	33.513192	-52.643815	33.513192	-0.150881	-108.860118
4.150000	-0.181312	-129.790151	-52.400247	30.821039	-52.400247	30.821039	-0.153299	-110.106110
4.200000	-0.184273	-131.323065	-52.161461	28.126863	-52.161461	28.126863	-0.155752	-111.351050
4.250000	-0.187277	-132.858260	-51.927406	25.430771	-51.927406	25.430771	-0.158240	-112.595008
4.300000	-0.190325	-134.395915	-51.698030	22.732903	-51.698030	22.732903	-0.160765	-113.838054
4.350000	-0.193416	-135.936214	-51.473286	20.033432	-51.473286	20.033432	-0.163325	-115.080260
4.400000	-0.196552	-137.479344	-51.253127	17.332564	-51.253127	17.332564	-0.165922	-116.321701
4.450000	-0.199732	-139.025495	-51.037507	14.630538	-51.037507	14.630538	-0.168556	-117.562451
4.500000	-0.202958	-140.574859	-50.826381	11.927618	-50.826381	11.927618	-0.171227	-118.802586
4.550000	-0.206228	-142.127633	-50.619701	9.224096	-50.619701	9.224096	-0.173936	-120.042187
4.600000	-0.209544	-143.684018	-50.417420	6.520288	-50.417420	6.520288	-0.176683	-121.281332
4.650000	-0.212906	-145.244217	-50.219490	3.816529	-50.219490	3.816529	-0.179468	-122.520102
4.700000	-0.216314	-146.808435	-50.025859	1.113171	-50.025859	1.113171	-0.182292	-123.758581
4.750000	-0.219767	-148.376883	-49.836476	-1.589421	-49.836476	-1.589421	-0.185154	-124.996852
4.800000	-0.223266	-149.949774	-49.651284	-4.290870	-49.651284	-4.290870	-0.188055	-126.235001
4.850000	-0.226812	-151.527323	-49.470227	-6.990796	-49.470227	-6.990796	-0.190995	-127.473116
4.900000	-0.230403	-153.109749	-49.293244	-9.688816	-49.293244	-9.688816	-0.193975	-128.711284
4.950000	-0.234040	-154.697275	-49.120272	-12.384550	-49.120272	-12.384550	-0.196993	-129.949596
5.000000	-0.237723	-156.290127	-48.951246	-15.077623	-48.951246	-15.077623	-0.200052	-131.188142
5.050000	-0.241454	-157.888784	-48.786129	-17.767523	-48.786129	-17.767523	-0.203151	-132.427035
5.100000	-0.245230	-159.493246	-48.624824	-20.454018	-48.624824	-20.454018	-0.206290	-133.666357
5.150000	-0.249051	-161.103750	-48.467259	-23.136780	-48.467259	-23.136780	-0.209470	-134.906204
5.200000	-0.252917	-162.720530	-48.313356	-25.815501	-48.313356	-25.815501	-0.212689	-136.146674
5.250000	-0.256827	-164.343828	-48.163040	-28.489899	-48.163040	-28.489899	-0.215947	-137.387863
5.300000	-0.260781	-165.973887	-48.016232	-31.159718	-48.016232	-31.159718	-0.219246	-138.629871
5.350000	-0.264779	-167.610951	-47.872854	-33.824736	-47.872854	-33.824736	-0.222585	-139.872798
5.400000	-0.268820	-169.255268	-47.732829	-36.484759	-47.732829	-36.484759	-0.225964	-141.116747
5.450000	-0.272903	-170.907088	-47.596078	-39.139629	-47.596078	-39.139629	-0.229382	-142.361820
5.500000	-0.277028	-172.566663	-47.462527	-41.789224	-47.462527	-41.789224	-0.232841	-143.608121
5.550000	-0.281194	-174.234248	-47.332101	-44.433457	-47.332101	-44.433457	-0.236340	-144.855756
5.600000	-0.285401	-175.910100	-47.204729	-47.072275	-47.204729	-47.072275	-0.239878	-146.104830
5.650000	-0.289643	-177.593328	-47.080190	-49.706370	-47.080190	-49.706370	-0.243451	-147.355236
5.700000	-0.293928	-179.286550	-46.958738	-52.334283	-46.958738	-52.334283	-0.247070	-148.607518
5.750000	-0.298252	179.011177	-46.840151	-54.956837	-46.840151	-54.956837	-0.250728	-149.861569
5.800000	-0.302612	177.299591	-46.724375	-57.574119	-46.724375	-57.574119	-0.254425	-151.117499
5.850000	-0.307008	175.578429	-46.611364	-60.186245	-46.611364	-60.186245	-0.258162	-152.375420
5.900000	-0.311439	173.847426	-46.501076	-62.793358	-46.501076	-62.793358	-0.261939	-153.635444
5.950000	-0.315904	172.106316	-46.393481	-65.395625	-46.393481	-65.395625	-0.265754	-154.897687
6.000000	-0.320401	170.354836	-46.288553	-67.993228	-46.288553	-67.993228	-0.269609	-156.162263
6.050000	-0.324929	168.592721	-46.186276	-70.586370	-46.186276	-70.586370	-0.273503	-157.429287
6.100000	-0.329487	166.819704	-46.086644	-73.175257	-46.086644	-73.175257	-0.277435	-158.698877
6.150000	-0.334074	165.035523	-45.989659	-75.760104	-45.989659	-75.760104	-0.281406	-159.971150
6.200000	-0.338687	163.239914	-45.895335	-78.341121	-45.895335	-78.341121	-0.285415	-161.246226
6.250000	-0.343326	161.432617	-45.803694	-80.918510	-45.803694	-80.918510	-0.289463	-162.524222
6.300000	-0.347990	159.613104	-45.714812	-83.492385	-45.714812	-83.492385	-0.293549	-163.805330
6.350000	-0.352676	157.781374	-45.628697	-86.062987	-45.628697	-86.062987	-0.297672	-165.089606
6.400000	-0.357383	155.937171	-45.545405	-88.630443	-45.545405	-88.630443	-0.301834	-166.377172
6.450000	-0.362108	154.080244	-45.465002	-91.194841	-45.465002	-91.194841	-0.306032	-167.668151
6.500000	-0.366851	152.210347	-45.387564	-93.756221	-45.387564	-93.756221	-0.310267	-168.962666
6.550000	-0.371609	150.327235	-45.313178	-96.314563	-45.313178	-96.314563	-0.314538	-170.260842
6.600000	-0.376381	148.430670	-45.241939	-98.869781	-45.241939	-98.869781	-0.318846	-171.562803
6.650000	-0.381165	146.520420	-45.173952	-101.421716	-45.173952	-101.421716	-0.323190	-172.868674
6.700000	-0.385958	144.596258	-45.109328	-103.970120	-45.109328	-103.970120	-0.327569	-174.178581
6.750000	-0.390760	142.657965	-45.048186	-106.514655	-45.048186	-106.514655	-0.331982	-175.492651
6.800000	-0.395567	140.705328	-44.990649	-109.054880	-44.990649	-109.054880	-0.336431	-176.811011
6.850000	-0.400379	138.738143	-44.936845	-111.590247	-44.936845	-111.590247	-0.340913	-178.133787
6.900000	-0.405192	136.756054	-44.886944	-114.120021	-44.886944	-114.120021	-0.345430	-179.461158
6.950000	-0.410006	134.758870	-44.841081	-116.643386	-44.841081	-116.643386	-0.349980	179.206742
7.000000	-0.414818	132.746576	-44.799347	-119.159480	-44.799347	-119.159480	-0.354562	177.869836
7.050000	-0.419626	130.719012	-44.761865	-121.667250	-44.761865	-121.667250	-0.359176	176.527994
7.100000	-0.424428	128.676027	-44.728752	-124.165514	-44.728752	-124.165514	-0.363822	175.181086
7.150000	-0.429223	126.617486	-44.700116	-126.652959	-44.700116	-126.652959	-0.368498	173.828985
7.200000	-0.434008	124.543267	-44.676055	-129.128142	-44.676055	-129.128142	-0.373204	172.471561
7.250000	-0.438782	122.453262	-44.656653	-131.589494	-44.656653	-131.589494	-0.377940	171.108683
7.300000	-0.443543	120.347383	-44.641975	-134.035329	-44.641975	-134.035329	-0.382704	169.740224
7.350000	-0.448290	118.225554	-44.632071	-136.463851	-44.632071	-136.463851	-0.387496	168.366052
7.400000	-0.453021	116.087722	-44.626968	-138.873163	-44.626968	-138.873163	-0.392314	166.986038
7.450000	-0.457735	113.933850	-44.626670	-141.261282	-44.626670	-141.261282	-0.397159	165.600054
7.500000	-0.462429	111.763921	-44.631154	-143.626151	-44.631154	-143.626151	-0.402029	164.207969
7.550000	-0.467104	109.577592	-44.640475	-145.965055	-44.640475	-145.965055	-0.406923	162.809517
7.600000	-0.471758	107.375240	-44.654448	-148.276344	-44.654448	-148.276344	-0.411841	161.404700
7.650000	-0.476390	105.156917	-44.672966	-150.557845	-44.672966	-150.557845	-0.416781	159.993390
7.700000	-0.481000	102.922698	-44.695888	-152.807387	-44.695888	-152.807387	-0.421742	158.575460
7.750000	-0.485588	100.672682	-44.723045	-155.022820	-44.723045	-155.022820	-0.426723	157.150781
7.800000	-0.490153	98.406995	-44.754236	-157.202035	-44.754236	-157.202035	-0.431723	155.719225
7.850000	-0.494695	96.125788	-44.789230	-159.342987	-44.789230	-159.342987	-0.436741	154.280667
7.900000	-0.499214	93.829239	-44.827765	-161.443711	-44.827765	-161.443711	-0.441776	152.834979
7.950000	-0.503712	91.517555	-44.869552	-163.502343	-44.869552	-163.502343	-0.446827	151.382036
8.000000	-0.508188	89.190970	-44.914272	-165.517139	-44.914272	-165.517139	-0.451892	149.921713
8.050000	-0.512644	86.849746	-44.961581	-167.486488	-44.961581	-167.486488	-0.456970	148.453886
8.100000	-0.517082	84.494175	-45.011110	-169.408933	-45.011110	-169.408933	-0.462061	146.978430
8.150000	-0.521503	82.124430	-45.062478	-171.282642	-45.062478	-171.282642	-0.467163	145.495138
8.200000	-0.525908	79.740874	-45.115257	-173.106467	-45.115257	-173.106467	-0.472276	144.003884
8.250000	-0.530301	77.344041	-45.168999	-174.880019	-45.168999	-174.880019	-0.477397	142.504630
8.300000	-0.534684	74.934344	-45.223254	-176.602580	-45.223254	-176.602580	-0.482527	140.997257
8.350000	-0.539060	72.512222	-45.277558	-178.273644	-45.277558	-178.273644	-0.487664	139.481647
8.400000	-0.543433	70.078146	-45.331439	-179.892914	-45.331439	-179.892914	-0.492807	137.957680
8.450000	-0.547806	67.632613	-45.384409	178.539681	-45.384409	178.539681	-0.497956	136.425241
8.500000	-0.552183	65.176148	-45.435977	177.023993	-45.435977	177.023993	-0.503110	134.884213
8.550000	-0.556568	62.709305	-45.485645	175.559641	-45.485645	175.559641	-0.508270	133.334483
8.600000	-0.560967	60.232663	-45.532912	174.146012	-45.532912	174.146012	-0.513434	131.775938
8.650000	-0.565383	57.746824	-45.577276	172.782256	-45.577276	172.782256	-0.518603	130.208465
8.700000	-0.569823	55.252417	-45.618237	171.467288	-45.618237	171.467288	-0.523777	128.631954
8.750000	-0.574291	52.750092	-45.655298	170.199780	-45.655298	170.199780	-0.528956	127.046296
8.800000	-0.578795	50.240378	-45.687858	168.979122	-45.687858	168.979122	-0.534143	125.451181
8.850000	-0.583339	47.724139	-45.715523	167.802453	-45.715523	167.802453	-0.539337	123.846701
8.900000	-0.587929	45.202084	-45.737821	166.667707	-45.737821	166.667707	-0.544541	122.232752
8.950000	-0.592573	42.674940	-45.754292	165.572576	-45.754292	165.572576	-0.549757	120.609232
9.000000	-0.597276	40.143443	-45.764494	164.514510	-45.764494	164.514510	-0.554987	118.976040
9.050000	-0.602046	37.608345	-45.767998	163.490724	-45.767998	163.490724	-0.560236	117.333077
9.100000	-0.606888	35.070405	-45.764400	162.498200	-45.764400	162.498200	-0.565506	115.680246
9.150000	-0.611810	32.530391	-45.753314	161.533686	-45.753314	161.533686	-0.570803	114.017452
9.200000	-0.616818	29.989074	-45.734382	160.593706	-45.734382	160.593706	-0.576131	112.344603
9.250000	-0.621920	27.447231	-45.707273	159.674563	-45.707273	159.674563	-0.581498	110.661608
9.300000	-0.627121	24.905636	-45.671686	158.772345	-45.671686	158.772345	-0.586911	108.968380
9.350000	-0.632428	22.365064	-45.627351	157.882935	-45.627351	157.882935	-0.592377	107.264834
9.400000	-0.637850	19.826314	-45.573930	157.002054	-45.573930	157.002054	-0.597907	105.550772
9.450000	-0.643393	17.290176	-45.511215	156.125029	-45.511215	156.125029	-0.603512	103.826113
9.500000	-0.649062	14.757384	-45.439149	155.247063	-45.439149	155.247063	-0.609203	102.090895
9.550000	-0.654862	12.228684	-45.357618	154.363270	-45.357618	154.363270	-0.614995	100.345046
9.600000	-0.660801	9.704807	-45.266551	153.468603	-45.266551	153.468603	-0.620900	98.588496
9.650000	-0.666882	7.186470	-45.165922	152.557850	-45.165922	152.557850	-0.626937	96.821183
9.700000	-0.673112	4.674373	-45.055756	151.625653	-45.055756	151.625653	-0.633124	95.043048
9.750000	-0.679495	2.169199	-44.936129	150.666505	-44.936129	150.666505	-0.639481	93.254036
9.800000	-0.686036	-0.328391	-44.807173	149.674763	-44.807173	149.674763	-0.646031	91.454100
9.850000	-0.692739	-2.817754	-44.669076	148.644657	-44.669076	148.644657	-0.652797	89.643198
9.900000	-0.699608	-5.298275	-44.522093	147.570291	-44.522093	147.570291	-0.659807	87.821295
9.950000	-0.706646	-7.769357	-44.366541	146.445660	-44.366541	146.445660	-0.667089	85.988364
10.000000	-0.713857	-10.230433	-44.202814	145.264661	-44.202814	145.264661	-0.674677	84.144388
