! freq	dB(S11)	phase(S11)	dB(S12)	phase(S12)	
!     	dB(S21)	phase(S21)	dB(S22)	phase(S22)	
!S-par simulation data
#  GHz  S  DB  R 50
0.000000	-0.000000	-0.000000	-384.789061	180.000000	-384.789061	180.000000	-0.000000	0.000000
0.050000	-0.000387	-1.217171	-110.339625	88.979814	-110.339625	88.979814	-0.000264	-0.848980
0.100000	-0.001451	-2.432578	-104.361189	87.969059	-104.361189	87.969059	-0.000990	-1.696798
0.150000	-0.002997	-3.645065	-100.912781	86.978360	-100.912781	86.978360	-0.002049	-2.542699
0.200000	-0.004783	-4.854692	-98.511778	86.015398	-98.511778	86.015398	-0.003277	-3.386726
0.250000	-0.006659	-6.061659	-96.701708	85.092482	-96.701708	85.092482	-0.004571	-4.229031
0.300000	-0.008526	-7.266462	-95.278610	84.222498	-95.278610	84.222498	-0.005861	-5.069969
0.350000	-0.010341	-8.469729	-94.127860	83.414323	-94.127860	83.414323	-0.007117	-5.909979
0.400000	-0.012083	-9.671613	-93.197119	82.693870	-93.197119	82.693870	-0.008324	-6.749211
0.450000	-0.013767	-10.872521	-92.430793	82.063888	-92.430793	82.063888	-0.009492	-7.587940
0.500000	-0.015393	-12.072335	-91.819956	81.568959	-91.819956	81.568959	-0.010620	-8.426152
0.550000	-0.016981	-13.271234	-91.330660	81.213787	-91.330660	81.213787	-0.011721	-9.263958
0.600000	-0.018537	-14.469052	-90.961901	81.052650	-90.961901	81.052650	-0.012802	-10.101300
0.650000	-0.020071	-15.665775	-90.699951	81.118381	-90.699951	81.118381	-0.013868	-10.938179
0.700000	-0.021590	-16.861311	-90.539710	81.468774	-90.539710	81.468774	-0.014925	-11.774557
0.750000	-0.023100	-18.055486	-90.483418	82.199519	-90.483418	82.199519	-0.015977	-12.610360
0.800000	-0.024603	-19.248357	-90.517296	83.361334	-90.517296	83.361334	-0.017027	-13.445611
0.850000	-0.026103	-20.439567	-90.654381	85.186497	-90.654381	85.186497	-0.018076	-14.280155
0.900000	-0.027602	-21.629319	-90.871138	87.722984	-90.871138	87.722984	-0.019125	-15.114077
0.950000	-0.029099	-22.817230	-91.165712	91.363882	-91.165712	91.363882	-0.020176	-15.947213
1.000000	-0.030596	-24.003447	-91.501552	96.243125	-91.501552	96.243125	-0.021229	-16.779623
1.050000	-0.032091	-25.187742	-91.821973	102.769469	-91.821973	102.769469	-0.022283	-17.611210
1.100000	-0.033585	-26.370071	-92.033332	111.101873	-92.033332	111.101873	-0.023339	-18.441955
1.150000	-0.035077	-27.550435	-92.015120	121.032529	-92.015120	121.032529	-0.024395	-19.271857
1.200000	-0.036564	-28.728557	-91.617482	131.984594	-91.617482	131.984594	-0.025450	-20.100799
1.250000	-0.038048	-29.904700	-90.860034	142.803609	-90.860034	142.803609	-0.026505	-20.928893
1.300000	-0.039525	-31.078323	-89.718199	152.267600	-89.718199	152.267600	-0.027559	-21.755906
1.350000	-0.040996	-32.249844	-88.407610	160.128714	-88.407610	160.128714	-0.028610	-22.582018
1.400000	-0.042461	-33.418838	-86.991061	166.108750	-86.991061	166.108750	-0.029659	-23.407047
1.450000	-0.043917	-34.585479	-85.576848	170.608221	-85.576848	170.608221	-0.030704	-24.231065
1.500000	-0.045367	-35.749613	-84.199063	173.875779	-84.199063	173.875779	-0.031746	-25.054006
1.550000	-0.046808	-36.911139	-82.875993	176.165139	-82.875993	176.165139	-0.032785	-25.875825
1.600000	-0.048242	-38.070203	-81.624618	177.759713	-81.624618	177.759713	-0.033820	-26.696583
1.650000	-0.049670	-39.226404	-80.430118	178.740192	-80.430118	178.740192	-0.034852	-27.516106
1.700000	-0.051091	-40.379842	-79.297367	179.279148	-79.297367	179.279148	-0.035882	-28.334435
1.750000	-0.052507	-41.530701	-78.228263	179.496271	-78.228263	179.496271	-0.036911	-29.151648
1.800000	-0.053920	-42.678787	-77.212855	179.434982	-77.212855	179.434982	-0.037938	-29.967660
1.850000	-0.055330	-43.824065	-76.246621	179.148867	-76.246621	179.148867	-0.038966	-30.782454
1.900000	-0.056739	-44.966504	-75.325352	178.679168	-75.325352	178.679168	-0.039995	-31.596017
1.950000	-0.058148	-46.106075	-74.445220	178.057993	-74.445220	178.057993	-0.041025	-32.408334
2.000000	-0.059558	-47.242752	-73.602788	177.310622	-73.602788	177.310622	-0.042059	-33.219395
2.050000	-0.060970	-48.376512	-72.794984	176.457185	-72.794984	176.457185	-0.043097	-34.029188
2.100000	-0.062385	-49.507334	-72.019076	175.513875	-72.019076	175.513875	-0.044139	-34.837704
2.150000	-0.063804	-50.635199	-71.272626	174.493846	-71.272626	174.493846	-0.045186	-35.644934
2.200000	-0.065228	-51.760088	-70.553463	173.407890	-70.553463	173.407890	-0.046239	-36.450869
2.250000	-0.066656	-52.881986	-69.859644	172.264927	-69.859644	172.264927	-0.047297	-37.255502
2.300000	-0.068091	-54.000877	-69.189431	171.072400	-69.189431	171.072400	-0.048362	-38.058822
2.350000	-0.069531	-55.116745	-68.541260	169.836558	-68.541260	169.836558	-0.049433	-38.860822
2.400000	-0.070976	-56.229579	-67.913721	168.562691	-67.913721	168.562691	-0.050511	-39.661493
2.450000	-0.072429	-57.339363	-67.305542	167.255301	-67.305542	167.255301	-0.051594	-40.460824
2.500000	-0.073887	-58.446085	-66.715568	165.918246	-66.715568	165.918246	-0.052684	-41.258806
2.550000	-0.075352	-59.549600	-66.141857	164.553840	-66.141857	164.553840	-0.053781	-42.055369
2.600000	-0.076824	-60.650029	-65.584443	163.166198	-65.584443	163.166198	-0.054883	-42.850561
2.650000	-0.078302	-61.747361	-65.042439	161.757784	-65.042439	161.757784	-0.055993	-43.644371
2.700000	-0.079787	-62.841587	-64.515033	160.330756	-64.515033	160.330756	-0.057108	-44.436788
2.750000	-0.081280	-63.932699	-64.001477	158.887014	-64.001477	158.887014	-0.058230	-45.227801
2.800000	-0.082779	-65.020687	-63.501086	157.428235	-63.501086	157.428235	-0.059358	-46.017399
2.850000	-0.084287	-66.105547	-63.013224	155.955909	-63.013224	155.955909	-0.060493	-46.805571
2.900000	-0.085802	-67.187271	-62.537305	154.471358	-62.537305	154.471358	-0.061634	-47.592306
2.950000	-0.087326	-68.265856	-62.072785	152.975764	-62.072785	152.975764	-0.062783	-48.377594
3.000000	-0.088859	-69.341298	-61.619157	151.470187	-61.619157	151.470187	-0.063939	-49.161423
3.050000	-0.090402	-70.413595	-61.175952	149.955578	-61.175952	149.955578	-0.065102	-49.943784
3.100000	-0.091954	-71.482747	-60.742730	148.432792	-60.742730	148.432792	-0.066274	-50.724666
3.150000	-0.093517	-72.548754	-60.319080	146.902604	-60.319080	146.902604	-0.067454	-51.504061
3.200000	-0.095091	-73.611619	-59.904620	145.365715	-59.904620	145.365715	-0.068642	-52.281958
3.250000	-0.096677	-74.671343	-59.498989	143.822760	-59.498989	143.822760	-0.069839	-53.058350
3.300000	-0.098274	-75.727932	-59.101850	142.274318	-59.101850	142.274318	-0.071046	-53.833228
3.350000	-0.099885	-76.781392	-58.712883	140.720917	-58.712883	140.720917	-0.072263	-54.606584
3.400000	-0.101509	-77.831730	-58.331792	139.163037	-58.331792	139.163037	-0.073490	-55.378410
3.450000	-0.103147	-78.878955	-57.958292	137.601122	-57.958292	137.601122	-0.074727	-56.148700
3.500000	-0.104800	-79.923076	-57.592118	136.035574	-57.592118	136.035574	-0.075976	-56.917446
3.550000	-0.106469	-80.964104	-57.233019	134.466766	-57.233019	134.466766	-0.077236	-57.684643
3.600000	-0.108153	-82.002053	-56.880755	132.895039	-56.880755	132.895039	-0.078508	-58.450285
3.650000	-0.109854	-83.036935	-56.535101	131.320709	-56.535101	131.320709	-0.079793	-59.214367
3.700000	-0.111573	-84.068767	-56.195843	129.744068	-56.195843	129.744068	-0.081091	-59.976883
3.750000	-0.113310	-85.097563	-55.862777	128.165383	-55.862777	128.165383	-0.082402	-60.737830
3.800000	-0.115066	-86.123212	-55.535438	126.584837	-55.535438	126.584837	-0.083727	-61.497136
3.850000	-0.116841	-87.145863	-55.213936	125.002747	-55.213936	125.002747	-0.085067	-62.254864
3.900000	-0.118637	-88.165538	-54.898093	123.419327	-54.898093	123.419327	-0.086422	-63.011012
3.950000	-0.120453	-89.182258	-54.587743	121.834772	-54.587743	121.834772	-0.087793	-63.765578
4.000000	-0.122290	-90.196044	-54.282724	120.249267	-54.282724	120.249267	-0.089179	-64.518560
4.050000	-0.124149	-91.206921	-53.982884	118.662984	-53.982884	118.662984	-0.090581	-65.269956
4.100000	-0.126031	-92.214913	-53.688075	117.076082	-53.688075	117.076082	-0.092000	-66.019766
4.150000	-0.127935	-93.220045	-53.398158	115.488710	-53.398158	115.488710	-0.093437	-66.767988
4.200000	-0.129864	-94.222345	-53.113000	113.901009	-53.113000	113.901009	-0.094891	-67.514623
4.250000	-0.131816	-95.221840	-52.832471	112.313110	-52.832471	112.313110	-0.096363	-68.259670
4.300000	-0.133793	-96.218559	-52.556449	110.725134	-52.556449	110.725134	-0.097854	-69.003132
4.350000	-0.135795	-97.212532	-52.284816	109.137197	-52.284816	109.137197	-0.099363	-69.745008
4.400000	-0.137823	-98.203789	-52.017460	107.549407	-52.017460	107.549407	-0.100893	-70.485301
4.450000	-0.139877	-99.192363	-51.754271	105.961865	-51.754271	105.961865	-0.102442	-71.224013
4.500000	-0.141958	-100.178287	-51.495147	104.374667	-51.495147	104.374667	-0.104012	-71.961145
4.550000	-0.144067	-101.161593	-51.239985	102.787904	-51.239985	102.787904	-0.105602	-72.696703
4.600000	-0.146203	-102.142316	-50.988691	101.201658	-50.988691	101.201658	-0.107214	-73.430688
4.650000	-0.148367	-103.120493	-50.741171	99.616011	-50.741171	99.616011	-0.108848	-74.163104
4.700000	-0.150561	-104.096158	-50.497337	98.031038	-50.497337	98.031038	-0.110504	-74.893956
4.750000	-0.152783	-105.069350	-50.257102	96.446810	-50.257102	96.446810	-0.112182	-75.623249
4.800000	-0.155036	-106.040105	-50.020383	94.863395	-50.020383	94.863395	-0.113884	-76.350988
4.850000	-0.157318	-107.008464	-49.787101	93.280856	-49.787101	93.280856	-0.115609	-77.077178
4.900000	-0.159632	-107.974465	-49.557179	91.699255	-49.557179	91.699255	-0.117358	-77.801826
4.950000	-0.161976	-108.938149	-49.330541	90.118647	-49.330541	90.118647	-0.119131	-78.524937
5.000000	-0.164351	-109.899558	-49.107117	88.539088	-49.107117	88.539088	-0.120929	-79.246518
5.050000	-0.166760	-110.858636	-48.886731	86.960679	-48.886731	86.960679	-0.122754	-79.966512
5.100000	-0.169202	-111.815527	-48.669429	85.383424	-48.669429	85.383424	-0.124604	-80.684991
5.150000	-0.171675	-112.770274	-48.455146	83.807369	-48.455146	83.807369	-0.126481	-81.401965
5.200000	-0.174183	-113.722920	-48.243819	82.232558	-48.243819	82.232558	-0.128384	-82.117442
5.250000	-0.176723	-114.673511	-48.035387	80.659034	-48.035387	80.659034	-0.130314	-82.831430
5.300000	-0.179297	-115.622092	-47.829791	79.086835	-47.829791	79.086835	-0.132272	-83.543939
5.350000	-0.181906	-116.568709	-47.626973	77.516001	-47.626973	77.516001	-0.134257	-84.254979
5.400000	-0.184549	-117.513408	-47.426878	75.946569	-47.426878	75.946569	-0.136271	-84.964559
5.450000	-0.187227	-118.456237	-47.229451	74.378572	-47.229451	74.378572	-0.138314	-85.672691
5.500000	-0.189940	-119.397244	-47.034642	72.812046	-47.034642	72.812046	-0.140385	-86.379385
5.550000	-0.192689	-120.336477	-46.842399	71.247021	-46.842399	71.247021	-0.142486	-87.084652
5.600000	-0.195474	-121.273986	-46.652672	69.683529	-46.652672	69.683529	-0.144617	-87.788504
5.650000	-0.198295	-122.209820	-46.465415	68.121600	-46.465415	68.121600	-0.146779	-88.490953
5.700000	-0.201152	-123.144030	-46.280581	66.561261	-46.280581	66.561261	-0.148971	-89.192011
5.750000	-0.204046	-124.076666	-46.098125	65.002541	-46.098125	65.002541	-0.151195	-89.891692
5.800000	-0.206978	-125.007779	-45.918004	63.445465	-45.918004	63.445465	-0.153450	-90.590008
5.850000	-0.209953	-125.937182	-45.739943	61.890357	-45.739943	61.890357	-0.155743	-91.286743
5.900000	-0.212967	-126.865108	-45.564086	60.337018	-45.564086	60.337018	-0.158069	-91.982083
5.950000	-0.216002	-127.792342	-45.391065	58.784585	-45.391065	58.784585	-0.160413	-92.676739
6.000000	-0.219095	-128.717505	-45.219504	57.234871	-45.219504	57.234871	-0.162809	-93.369342
6.050000	-0.222203	-129.642247	-45.050864	55.685777	-45.050864	55.685777	-0.165217	-94.061502
6.100000	-0.225377	-130.564884	-44.883462	54.139785	-44.883462	54.139785	-0.167684	-94.751436
6.150000	-0.228559	-131.487331	-44.719039	52.594111	-44.719039	52.594111	-0.170157	-95.441155
6.200000	-0.231815	-132.407683	-44.555664	51.051935	-44.555664	51.051935	-0.172696	-96.128491
6.250000	-0.235071	-133.328035	-44.395305	49.509760	-44.395305	49.509760	-0.175236	-96.815828
6.300000	-0.238389	-134.246827	-44.236326	47.970505	-44.236326	47.970505	-0.177831	-97.501262
6.350000	-0.241747	-135.164701	-44.079273	46.433144	-44.079273	46.433144	-0.180463	-98.185506
6.400000	-0.245144	-136.081715	-43.924115	44.897699	-43.924115	44.897699	-0.183130	-98.868577
6.450000	-0.248582	-136.997927	-43.770820	43.364191	-43.770820	43.364191	-0.185835	-99.550495
6.500000	-0.252060	-137.913396	-43.619358	41.832641	-43.619358	41.832641	-0.188577	-100.231280
6.550000	-0.255578	-138.828179	-43.469698	40.303073	-43.469698	40.303073	-0.191356	-100.910950
6.600000	-0.259137	-139.742338	-43.321811	38.775508	-43.321811	38.775508	-0.194174	-101.589526
6.650000	-0.262737	-140.655932	-43.175667	37.249972	-43.175667	37.249972	-0.197030	-102.267031
6.700000	-0.266386	-141.568922	-43.031079	35.726972	-43.031079	35.726972	-0.199933	-102.943248
6.750000	-0.270056	-142.481693	-42.888543	34.204931	-42.888543	34.204931	-0.202855	-103.618983
6.800000	-0.273791	-143.393852	-42.747259	32.686306	-42.747259	32.686306	-0.205841	-104.293096
6.850000	-0.277546	-144.305874	-42.607953	31.168668	-42.607953	31.168668	-0.208845	-104.966762
6.900000	-0.281359	-145.217518	-42.470002	29.654066	-42.470002	29.654066	-0.211906	-105.639084
6.950000	-0.285204	-146.129034	-42.333754	28.141244	-42.333754	28.141244	-0.214999	-106.310677
7.000000	-0.289089	-147.040400	-42.199082	26.630526	-42.199082	26.630526	-0.218131	-106.981409
7.050000	-0.293026	-147.951704	-42.065799	25.122713	-42.065799	25.122713	-0.221314	-107.651056
7.100000	-0.296983	-148.862985	-41.934278	23.616018	-41.934278	23.616018	-0.224519	-108.320286
7.150000	-0.301011	-149.774377	-41.803862	22.113461	-41.803862	22.113461	-0.227794	-108.988128
7.200000	-0.305059	-150.685849	-41.675154	20.612065	-41.675154	20.612065	-0.231091	-109.655626
7.250000	-0.309161	-151.597555	-41.547708	19.113981	-41.547708	19.113981	-0.234443	-110.322149
7.300000	-0.313301	-152.509526	-41.421693	17.618312	-41.421693	17.618312	-0.237834	-110.988066
7.350000	-0.317476	-153.421748	-41.297094	16.124927	-41.297094	16.124927	-0.241262	-111.653411
7.400000	-0.321706	-154.334532	-41.173644	14.635493	-41.173644	14.635493	-0.244750	-112.317951
7.450000	-0.325958	-155.247515	-41.051717	13.147419	-41.051717	13.147419	-0.248260	-112.982225
7.500000	-0.330277	-156.161392	-40.930710	11.664705	-40.930710	11.664705	-0.251845	-113.645671
7.550000	-0.334619	-157.075619	-40.811103	10.183918	-40.811103	10.183918	-0.255456	-114.308919
7.600000	-0.339011	-157.990643	-40.692530	8.707512	-40.692530	8.707512	-0.259124	-114.971719
7.650000	-0.343445	-158.906444	-40.575001	7.235283	-40.575001	7.235283	-0.262842	-115.634312
7.700000	-0.347910	-159.822833	-40.458630	5.766213	-40.458630	5.766213	-0.266598	-116.296748
7.750000	-0.352433	-160.740544	-40.342819	4.304521	-40.342819	4.304521	-0.270431	-116.959211
7.800000	-0.356977	-161.658696	-40.228185	2.845392	-40.228185	2.845392	-0.274292	-117.621739
7.850000	-0.361585	-162.578486	-40.113646	1.396360	-40.113646	1.396360	-0.278250	-118.284821
7.900000	-0.366218	-163.499013	-39.999774	-0.047284	-39.999774	-0.047284	-0.282259	-118.948461
7.950000	-0.370897	-164.420847	-39.885938	-1.481396	-39.885938	-1.481396	-0.286355	-119.613085
8.000000	-0.375620	-165.344104	-39.771269	-2.902260	-39.771269	-2.902260	-0.290579	-120.279684
8.050000	-0.380370	-166.268214	-39.656730	-4.315175	-39.656730	-4.315175	-0.294880	-120.947467
8.100000	-0.385174	-167.194318	-39.538569	-5.703147	-39.538569	-5.703147	-0.299468	-121.620013
8.150000	-0.390012	-168.121742	-39.416512	-7.069312	-39.416512	-7.069312	-0.304392	-122.297601
8.200000	-0.394882	-169.050488	-39.289104	-8.410817	-39.289104	-8.410817	-0.309781	-122.981535
8.250000	-0.399795	-169.981238	-39.145740	-9.704560	-39.145740	-9.704560	-0.316494	-123.680649
8.300000	-0.404727	-170.913645	-38.968166	-10.964233	-38.968166	-10.964233	-0.326731	-124.405175
8.350000	-0.409664	-171.847158	-38.758068	-12.227143	-38.758068	-12.227143	-0.341041	-125.151370
8.400000	-0.414514	-172.782709	-38.405861	-13.940009	-38.405861	-13.940009	-0.378817	-125.938680
8.450000	-0.419054	-173.721303	-37.998019	-18.294699	-37.998019	-18.294699	-0.464582	-126.435310
8.500000	-0.423851	-174.667281	-38.364641	-23.348543	-38.364641	-23.348543	-0.458476	-126.355280
8.550000	-0.429446	-175.613198	-38.691774	-23.826689	-38.691774	-23.826689	-0.398962	-126.905409
8.600000	-0.434918	-176.558997	-38.713011	-24.125187	-38.713011	-24.125187	-0.376215	-127.634788
8.650000	-0.440284	-177.507147	-38.651304	-24.881205	-38.651304	-24.881205	-0.368999	-128.352156
8.700000	-0.445627	-178.458119	-38.568385	-25.904503	-38.568385	-25.904503	-0.367689	-129.049810
8.750000	-0.450981	-179.411979	-38.480285	-27.071415	-38.480285	-27.071415	-0.368944	-129.734127
8.800000	-0.456359	179.631148	-38.391505	-28.323851	-38.391505	-28.323851	-0.371548	-130.409544
8.850000	-0.461779	178.670222	-38.303790	-29.638644	-38.303790	-29.638644	-0.375053	-131.077906
8.900000	-0.467218	177.707619	-38.217187	-30.974028	-38.217187	-30.974028	-0.378849	-131.743868
8.950000	-0.472716	176.739589	-38.132702	-32.345790	-38.132702	-32.345790	-0.383146	-132.405393
9.000000	-0.478235	175.769833	-38.049447	-33.726074	-38.049447	-33.726074	-0.387562	-133.065875
9.050000	-0.483821	174.794182	-37.968439	-35.126961	-37.968439	-35.126961	-0.392274	-133.723823
9.100000	-0.489445	173.815457	-37.888927	-36.534008	-37.888927	-36.534008	-0.397082	-134.381068
9.150000	-0.495123	172.832173	-37.811237	-37.950187	-37.811237	-37.950187	-0.402034	-135.037270
9.200000	-0.500866	171.843765	-37.735459	-39.372992	-37.735459	-39.372992	-0.407099	-135.692848
9.250000	-0.506671	170.850662	-37.661456	-40.801100	-37.661456	-40.801100	-0.412256	-136.347985
9.300000	-0.512553	169.852015	-37.589399	-42.234386	-37.589399	-42.234386	-0.417508	-137.002787
9.350000	-0.518551	168.845670	-37.519802	-43.673435	-37.519802	-43.673435	-0.422863	-137.657409
9.400000	-0.524652	167.833404	-37.452229	-45.116410	-37.452229	-45.116410	-0.428285	-138.312014
9.450000	-0.530867	166.814893	-37.386739	-46.563360	-37.386739	-46.563360	-0.433775	-138.966649
9.500000	-0.537292	165.786101	-37.324385	-48.016450	-37.324385	-48.016450	-0.439355	-139.621463
9.550000	-0.543962	164.747350	-37.265158	-49.475322	-37.265158	-49.475322	-0.445007	-140.276551
9.600000	-0.550897	163.699145	-37.208956	-50.939695	-37.208956	-50.939695	-0.450718	-140.931928
9.650000	-0.558171	162.639692	-37.156294	-52.410624	-37.156294	-52.410624	-0.456492	-141.587674
9.700000	-0.566194	161.560128	-37.110005	-53.893472	-37.110005	-53.893472	-0.462348	-142.244116
9.750000	-0.574760	160.468353	-37.067837	-55.383630	-37.067837	-55.383630	-0.468245	-142.900976
9.800000	-0.584631	159.350795	-37.034448	-56.889225	-37.034448	-56.889225	-0.474204	-143.558690
9.850000	-0.596270	158.204754	-37.011439	-58.411587	-37.011439	-58.411587	-0.480203	-144.217276
9.900000	-0.610584	157.023310	-37.002436	-59.953705	-37.002436	-59.953705	-0.486220	-144.876825
9.950000	-0.629735	155.790447	-37.016255	-61.520999	-37.016255	-61.520999	-0.492219	-145.537545
10.000000	-0.655916	154.498874	-37.060563	-63.109101	-37.060563	-63.109101	-0.498154	-146.199275
