! freq	dB(S11)	phase(S11)	dB(S12)	phase(S12)	
!     	dB(S21)	phase(S21)	dB(S22)	phase(S22)	
!S-par simulation data
#  GHz  S  DB  R 50
0.000000	0.000000	0.000000	-340.366232	0.000000	-340.366232	0.000000	0.000000	0.000000
0.050000	-0.000157	-2.041754	-89.530242	10.631569	-89.530242	10.631569	-0.000109	-0.924803
0.100000	-0.000625	-4.083200	-89.243385	17.066242	-89.243385	17.066242	-0.000432	-1.849354
0.150000	-0.001403	-6.124024	-88.820570	23.579623	-88.820570	23.579623	-0.000960	-2.773408
0.200000	-0.002473	-8.163951	-88.312006	29.405672	-88.312006	29.405672	-0.001672	-3.696766
0.250000	-0.003829	-10.202691	-87.762668	34.408232	-87.762668	34.408232	-0.002551	-4.619246
0.300000	-0.005456	-12.239976	-87.209489	38.623969	-87.209489	38.623969	-0.003572	-5.540703
0.350000	-0.007337	-14.275554	-86.678609	42.154018	-86.678609	42.154018	-0.004711	-6.461033
0.400000	-0.009454	-16.309191	-86.187260	45.118029	-86.187260	45.118029	-0.005945	-7.380164
0.450000	-0.011786	-18.340675	-85.746288	47.633778	-85.746288	47.633778	-0.007251	-8.298057
0.500000	-0.014313	-20.369813	-85.362349	49.809787	-85.362349	49.809787	-0.008608	-9.214697
0.550000	-0.017012	-22.396435	-85.039526	51.744437	-85.039526	51.744437	-0.009998	-10.130088
0.600000	-0.019861	-24.420394	-84.780410	53.528101	-84.780410	53.528101	-0.011407	-11.044248
0.650000	-0.022838	-26.441535	-84.587460	55.246897	-84.587460	55.246897	-0.012823	-11.957189
0.700000	-0.025920	-28.459752	-84.462062	56.989395	-84.462062	56.989395	-0.014235	-12.868942
0.750000	-0.029086	-30.474994	-84.404347	58.846763	-84.404347	58.846763	-0.015638	-13.779547
0.800000	-0.032314	-32.487202	-84.414438	60.919599	-84.414438	60.919599	-0.017025	-14.689034
0.850000	-0.035585	-34.496334	-84.491166	63.324591	-84.491166	63.324591	-0.018395	-15.597424
0.900000	-0.038883	-36.502364	-84.630824	66.200801	-84.630824	66.200801	-0.019744	-16.504736
0.950000	-0.042191	-38.505284	-84.824983	69.714874	-84.824983	69.714874	-0.021073	-17.410984
1.000000	-0.045495	-40.505099	-85.056915	74.061295	-85.056915	74.061295	-0.022381	-18.316175
1.050000	-0.048783	-42.501827	-85.296358	79.448953	-85.296358	79.448953	-0.023668	-19.220314
1.100000	-0.052043	-44.495496	-85.493455	86.058528	-85.493455	86.058528	-0.024936	-20.123399
1.150000	-0.055267	-46.486144	-85.575732	93.953882	-85.575732	93.953882	-0.026187	-21.025425
1.200000	-0.058447	-48.473819	-85.456430	102.955976	-85.456430	102.955976	-0.027420	-21.926383
1.250000	-0.061577	-50.458575	-85.061533	112.557626	-85.061533	112.557626	-0.028638	-22.826262
1.300000	-0.064652	-52.440413	-84.358298	121.989541	-84.358298	121.989541	-0.029843	-23.725021
1.350000	-0.067670	-54.419462	-83.394189	130.534182	-83.394189	130.534182	-0.031035	-24.622669
1.400000	-0.070630	-56.395795	-82.249845	137.776793	-82.249845	137.776793	-0.032217	-25.519185
1.450000	-0.073530	-58.369486	-81.008733	143.617379	-81.008733	143.617379	-0.033389	-26.414549
1.500000	-0.076373	-60.340617	-79.735481	148.160238	-79.735481	148.160238	-0.034554	-27.308740
1.550000	-0.079159	-62.309269	-78.471963	151.594095	-78.471963	151.594095	-0.035711	-28.201736
1.600000	-0.081890	-64.275529	-77.241984	154.117503	-77.241984	154.117503	-0.036864	-29.093513
1.650000	-0.084570	-66.239487	-76.057392	155.906186	-76.057392	155.906186	-0.038011	-29.984048
1.700000	-0.087202	-68.201235	-74.922875	157.104332	-74.922875	157.104332	-0.039155	-30.873317
1.750000	-0.089790	-70.160869	-73.839107	157.826286	-73.839107	157.826286	-0.040296	-31.761297
1.800000	-0.092339	-72.118489	-72.804648	158.161505	-72.804648	158.161505	-0.041435	-32.647964
1.850000	-0.094852	-74.074196	-71.817042	158.179813	-71.817042	158.179813	-0.042573	-33.533294
1.900000	-0.097334	-76.028078	-70.872805	157.933546	-70.872805	157.933546	-0.043711	-34.417248
1.950000	-0.099790	-77.980249	-69.969173	157.466994	-69.969173	157.466994	-0.044849	-35.299804
2.000000	-0.102226	-79.930843	-69.103942	156.816831	-69.103942	156.816831	-0.045987	-36.180952
2.050000	-0.104645	-81.879978	-68.274407	156.010292	-68.274407	156.010292	-0.047126	-37.060672
2.100000	-0.107053	-83.827777	-67.478086	155.069505	-67.478086	155.069505	-0.048268	-37.938940
2.150000	-0.109454	-85.774368	-66.712712	154.012623	-66.712712	154.012623	-0.049411	-38.815737
2.200000	-0.111852	-87.719884	-65.976235	152.854677	-65.976235	152.854677	-0.050557	-39.691040
2.250000	-0.114252	-89.664463	-65.266796	151.608227	-65.266796	151.608227	-0.051706	-40.564831
2.300000	-0.116657	-91.608250	-64.582714	150.283856	-64.582714	150.283856	-0.052859	-41.437090
2.350000	-0.119072	-93.551394	-63.922469	148.890561	-63.922469	148.890561	-0.054015	-42.307798
2.400000	-0.121499	-95.494050	-63.284679	147.436046	-63.284679	147.436046	-0.055176	-43.176936
2.450000	-0.123941	-97.436381	-62.668089	145.926960	-62.668089	145.926960	-0.056341	-44.044488
2.500000	-0.126402	-99.378555	-62.071557	144.369079	-62.071557	144.369079	-0.057511	-44.910435
2.550000	-0.128885	-101.320751	-61.493620	142.766609	-61.493620	142.766609	-0.058687	-45.774727
2.600000	-0.131391	-103.263156	-60.933798	141.125016	-60.933798	141.125016	-0.059868	-46.637382
2.650000	-0.133924	-105.205957	-60.391201	139.448203	-60.391201	139.448203	-0.061055	-47.498385
2.700000	-0.136484	-107.149351	-59.865013	137.739638	-59.865013	137.739638	-0.062248	-48.357723
2.750000	-0.139073	-109.093539	-59.354475	136.002421	-59.354475	136.002421	-0.063449	-49.215381
2.800000	-0.141693	-111.038731	-58.858887	134.239329	-58.858887	134.239329	-0.064656	-50.071347
2.850000	-0.144345	-112.985143	-58.377596	132.452862	-58.377596	132.452862	-0.065871	-50.925607
2.900000	-0.147031	-114.932999	-57.909994	130.645272	-57.909994	130.645272	-0.067094	-51.778152
2.950000	-0.149750	-116.882527	-57.455513	128.818594	-57.455513	128.818594	-0.068325	-52.628968
3.000000	-0.152503	-118.833964	-57.013621	126.974671	-57.013621	126.974671	-0.069564	-53.478046
3.050000	-0.155292	-120.787553	-56.583818	125.115170	-56.583818	125.115170	-0.070813	-54.325377
3.100000	-0.158116	-122.743544	-56.165635	123.241604	-56.165635	123.241604	-0.072070	-55.170950
3.150000	-0.160977	-124.702225	-55.758545	121.355219	-55.758545	121.355219	-0.073338	-56.014739
3.200000	-0.163874	-126.663867	-55.362150	119.457293	-55.362150	119.457293	-0.074616	-56.856735
3.250000	-0.166806	-128.628710	-54.976145	117.549079	-54.976145	117.549079	-0.075905	-57.696950
3.300000	-0.169775	-130.597027	-54.600155	115.631584	-54.600155	115.631584	-0.077205	-58.535378
3.350000	-0.172780	-132.569099	-54.233826	113.705715	-54.233826	113.705715	-0.078516	-59.372013
3.400000	-0.175820	-134.545211	-53.876825	111.772289	-53.876825	111.772289	-0.079840	-60.206849
3.450000	-0.178895	-136.525654	-53.528832	109.832037	-53.528832	109.832037	-0.081175	-61.039881
3.500000	-0.182006	-138.510721	-53.189550	107.885611	-53.189550	107.885611	-0.082524	-61.871107
3.550000	-0.185151	-140.500714	-52.858694	105.933592	-52.858694	105.933592	-0.083886	-62.700521
3.600000	-0.188331	-142.495935	-52.535996	103.976492	-52.535996	103.976492	-0.085261	-63.528122
3.650000	-0.191545	-144.496692	-52.221202	102.014761	-52.221202	102.014761	-0.086651	-64.353907
3.700000	-0.194791	-146.503295	-51.914074	100.048792	-51.914074	100.048792	-0.088055	-65.177874
3.750000	-0.198071	-148.516060	-51.614385	98.078924	-51.614385	98.078924	-0.089474	-66.000022
3.800000	-0.201383	-150.535450	-51.321868	96.105377	-51.321868	96.105377	-0.090910	-66.820312
3.850000	-0.204727	-152.561650	-51.036389	94.128478	-51.036389	94.128478	-0.092361	-67.638782
3.900000	-0.208103	-154.594983	-50.757762	92.148432	-50.757762	92.148432	-0.093829	-68.455434
3.950000	-0.211508	-156.635768	-50.485810	90.165404	-50.485810	90.165404	-0.095315	-69.270269
4.000000	-0.214942	-158.684330	-50.220368	88.179530	-50.220368	88.179530	-0.096817	-70.083289
4.050000	-0.218406	-160.740991	-49.961285	86.190916	-49.961285	86.190916	-0.098338	-70.894495
4.100000	-0.221897	-162.806074	-49.708416	84.199642	-49.708416	84.199642	-0.099877	-71.703892
4.150000	-0.225415	-164.879900	-49.461633	82.205767	-49.461633	82.205767	-0.101435	-72.511482
4.200000	-0.228959	-166.962790	-49.220813	80.209330	-49.220813	80.209330	-0.103013	-73.317270
4.250000	-0.232528	-169.055062	-48.985846	78.210357	-48.985846	78.210357	-0.104611	-74.121259
4.300000	-0.236120	-171.157031	-48.756632	76.208858	-48.756632	76.208858	-0.106229	-74.923456
4.350000	-0.239735	-173.269009	-48.533080	74.204839	-48.533080	74.204839	-0.107868	-75.723866
4.400000	-0.243371	-175.391419	-48.315111	72.198268	-48.315111	72.198268	-0.109529	-76.522476
4.450000	-0.247026	-177.524574	-48.102658	70.189140	-48.102658	70.189140	-0.111212	-77.319293
4.500000	-0.250700	-179.668658	-47.895660	68.177476	-47.895660	68.177476	-0.112917	-78.114344
4.550000	-0.254390	178.176039	-47.694060	66.163274	-47.694060	66.163274	-0.114645	-78.907635
4.600000	-0.258094	176.009235	-47.497813	64.146535	-47.497813	64.146535	-0.116397	-79.699177
4.650000	-0.261810	173.830656	-47.306879	62.127272	-47.306879	62.127272	-0.118173	-80.488976
4.700000	-0.265537	171.640038	-47.121229	60.105504	-47.121229	60.105504	-0.119973	-81.277044
4.750000	-0.269271	169.437127	-46.940838	58.081268	-46.940838	58.081268	-0.121798	-82.063389
4.800000	-0.273012	167.221680	-46.765692	56.054612	-46.765692	56.054612	-0.123649	-82.848022
4.850000	-0.276755	164.993466	-46.595781	54.025605	-46.595781	54.025605	-0.125525	-83.630954
4.900000	-0.280498	162.752269	-46.431102	51.994334	-46.431102	51.994334	-0.127428	-84.412195
4.950000	-0.284239	160.497886	-46.271659	49.960909	-46.271659	49.960909	-0.129357	-85.191758
5.000000	-0.287974	158.230129	-46.117463	47.925463	-46.117463	47.925463	-0.131314	-85.969655
5.050000	-0.291699	155.948530	-45.968591	45.888121	-45.968591	45.888121	-0.133299	-86.745863
5.100000	-0.295413	153.653228	-45.825012	43.849116	-45.825012	43.849116	-0.135312	-87.520431
5.150000	-0.299110	151.344091	-45.686753	41.808666	-45.686753	41.808666	-0.137355	-88.293373
5.200000	-0.302787	149.021007	-45.553843	39.767022	-45.553843	39.767022	-0.139426	-89.064703
5.250000	-0.306441	146.683884	-45.426320	37.724466	-45.426320	37.724466	-0.141527	-89.834436
5.300000	-0.310067	144.332655	-45.304222	35.681315	-45.304222	35.681315	-0.143658	-90.602586
5.350000	-0.313661	141.967273	-45.187595	33.637921	-45.187595	33.637921	-0.145819	-91.369169
5.400000	-0.317220	139.587719	-45.076485	31.594672	-45.076485	31.594672	-0.148012	-92.134201
5.450000	-0.320738	137.193999	-44.970945	29.551996	-44.970945	29.551996	-0.150236	-92.897697
5.500000	-0.324211	134.786144	-44.871027	27.510358	-44.871027	27.510358	-0.152492	-93.659675
5.550000	-0.327636	132.364214	-44.776790	25.470262	-44.776790	25.470262	-0.154781	-94.420152
5.600000	-0.331007	129.928298	-44.688293	23.432256	-44.688293	23.432256	-0.157102	-95.179146
5.650000	-0.334319	127.478366	-44.605655	21.396962	-44.605655	21.396962	-0.159457	-95.936657
5.700000	-0.337569	125.014573	-44.528946	19.365037	-44.528946	19.365037	-0.161845	-96.692706
5.750000	-0.340751	122.537250	-44.458179	17.337130	-44.458179	17.337130	-0.164268	-97.447328
5.800000	-0.343862	120.046612	-44.393423	15.313966	-44.393423	15.313966	-0.166726	-98.200540
5.850000	-0.346897	117.542906	-44.334748	13.296315	-44.334748	13.296315	-0.169218	-98.952364
5.900000	-0.349853	115.026408	-44.282226	11.284996	-44.282226	11.284996	-0.171746	-99.702818
5.950000	-0.352725	112.497431	-44.235931	9.280880	-44.235931	9.280880	-0.174310	-100.451923
6.000000	-0.355510	109.956319	-44.195939	7.284888	-44.195939	7.284888	-0.176909	-101.199701
6.050000	-0.358204	107.403449	-44.162326	5.297993	-44.162326	5.297993	-0.179546	-101.946171
6.100000	-0.360805	104.839231	-44.135171	3.321228	-44.135171	3.321228	-0.182219	-102.691356
6.150000	-0.363309	102.264105	-44.114554	1.355684	-44.114554	1.355684	-0.184930	-103.435277
6.200000	-0.365715	99.678546	-44.100556	-0.597487	-44.100556	-0.597487	-0.187678	-104.177956
6.250000	-0.368019	97.083058	-44.093260	-2.537064	-44.093260	-2.537064	-0.190465	-104.919417
6.300000	-0.370219	94.477984	-44.092900	-4.461403	-44.092900	-4.461403	-0.193291	-105.659657
6.350000	-0.372315	91.864105	-44.099416	-6.369426	-44.099416	-6.369426	-0.196156	-106.398724
6.400000	-0.374306	89.242013	-44.112894	-8.259678	-44.112894	-8.259678	-0.199060	-107.136645
6.450000	-0.376193	86.612326	-44.133421	-10.130618	-44.133421	-10.130618	-0.202004	-107.873441
6.500000	-0.377976	83.975687	-44.161087	-11.980605	-44.161087	-11.980605	-0.204989	-108.609138
6.550000	-0.379656	81.332759	-44.195980	-13.807895	-44.195980	-13.807895	-0.208013	-109.343761
6.600000	-0.381235	78.684228	-44.238190	-15.610630	-44.238190	-15.610630	-0.211079	-110.077334
6.650000	-0.382715	76.030795	-44.287808	-17.386825	-44.287808	-17.386825	-0.214185	-110.809883
6.700000	-0.384098	73.373178	-44.344921	-19.134360	-44.344921	-19.134360	-0.217333	-111.541434
6.750000	-0.385388	70.712109	-44.409620	-20.850962	-44.409620	-20.850962	-0.220523	-112.272013
6.800000	-0.386590	68.048329	-44.481988	-22.534194	-44.481988	-22.534194	-0.223755	-113.001646
6.850000	-0.387708	65.382587	-44.562108	-24.181438	-44.562108	-24.181438	-0.227029	-113.730361
6.900000	-0.388746	62.715633	-44.650132	-25.789418	-44.650132	-25.789418	-0.230347	-114.458175
6.950000	-0.389712	60.048247	-44.746125	-27.354984	-44.746125	-27.354984	-0.233708	-115.185117
7.000000	-0.390611	57.381197	-44.850068	-28.875262	-44.850068	-28.875262	-0.237113	-115.911224
7.050000	-0.391451	54.715233	-44.962006	-30.346689	-44.962006	-30.346689	-0.240562	-116.636524
7.100000	-0.392241	52.051099	-45.081966	-31.765412	-45.081966	-31.765412	-0.244055	-117.361047
7.150000	-0.392987	49.389524	-45.209952	-33.127260	-45.209952	-33.127260	-0.247592	-118.084820
7.200000	-0.393699	46.731229	-45.345943	-34.427722	-45.345943	-34.427722	-0.251174	-118.807873
7.250000	-0.394387	44.076916	-45.489880	-35.661913	-45.489880	-35.661913	-0.254801	-119.530236
7.300000	-0.395059	41.427267	-45.641663	-36.824553	-45.641663	-36.824553	-0.258473	-120.251939
7.350000	-0.395725	38.782942	-45.801137	-37.909940	-45.801137	-37.909940	-0.262190	-120.973011
7.400000	-0.396397	36.144577	-45.968081	-38.911926	-45.968081	-38.911926	-0.265954	-121.693484
7.450000	-0.397084	33.512781	-46.142195	-39.823907	-46.142195	-39.823907	-0.269763	-122.413388
7.500000	-0.397797	30.888131	-46.323079	-40.638814	-46.323079	-40.638814	-0.273619	-123.132754
7.550000	-0.398550	28.271352	-46.510248	-41.346665	-46.510248	-41.346665	-0.277523	-123.851604
7.600000	-0.399352	25.662796	-46.702966	-41.941585	-46.702966	-41.941585	-0.281473	-124.569982
7.650000	-0.400215	23.062934	-46.900397	-42.415229	-46.900397	-42.415229	-0.285471	-125.287919
7.700000	-0.401152	20.472197	-47.101509	-42.758989	-47.101509	-42.758989	-0.289515	-126.005449
7.750000	-0.402173	17.890976	-47.305039	-42.964131	-47.305039	-42.964131	-0.293608	-126.722603
7.800000	-0.403292	15.319619	-47.509464	-43.022013	-47.509464	-43.022013	-0.297748	-127.439416
7.850000	-0.404520	12.758428	-47.712966	-42.924363	-47.712966	-42.924363	-0.301936	-128.155921
7.900000	-0.405869	10.207660	-47.913410	-42.663649	-47.913410	-42.663649	-0.306172	-128.872152
7.950000	-0.407353	7.667526	-48.108320	-42.233547	-48.108320	-42.233547	-0.310456	-129.588143
8.000000	-0.408983	5.138187	-48.294879	-41.629500	-48.294879	-41.629500	-0.314790	-130.303928
8.050000	-0.410771	2.619754	-48.469943	-40.849361	-48.469943	-40.849361	-0.319171	-131.019544
8.100000	-0.412731	0.112288	-48.630090	-39.894095	-48.630090	-39.894095	-0.323602	-131.735024
8.150000	-0.414877	-2.384083	-48.771428	-38.766723	-48.771428	-38.766723	-0.328082	-132.450404
8.200000	-0.417223	-4.869407	-48.890153	-37.476935	-48.890153	-37.476935	-0.332612	-133.165720
8.250000	-0.419779	-7.343904	-48.982880	-36.041002	-48.982880	-36.041002	-0.337191	-133.881011
8.300000	-0.422560	-9.807733	-49.046274	-34.478324	-49.046274	-34.478324	-0.341820	-134.596312
8.350000	-0.425574	-12.261253	-49.077987	-32.814085	-49.077987	-32.814085	-0.346498	-135.311660
8.400000	-0.428840	-14.704559	-49.075329	-31.074274	-49.075329	-31.074274	-0.351225	-136.027092
8.450000	-0.432378	-17.137727	-49.035991	-29.289407	-49.035991	-29.289407	-0.356003	-136.742649
8.500000	-0.436194	-19.561576	-48.961164	-27.493434	-48.961164	-27.493434	-0.360831	-137.458365
8.550000	-0.440300	-21.976533	-48.851438	-25.716787	-48.851438	-25.716787	-0.365708	-138.174274
8.600000	-0.444731	-24.382647	-48.706370	-23.992123	-48.706370	-23.992123	-0.370636	-138.890429
8.650000	-0.449487	-26.780934	-48.530101	-22.343526	-48.530101	-22.343526	-0.375614	-139.606856
8.700000	-0.454584	-29.172034	-48.325552	-20.791932	-48.325552	-20.791932	-0.380642	-140.323592
8.750000	-0.460055	-31.556397	-48.094811	-19.358760	-48.094811	-19.358760	-0.385721	-141.040688
8.800000	-0.465914	-33.934940	-47.841958	-18.054376	-47.841958	-18.054376	-0.390850	-141.758177
8.850000	-0.472175	-36.308605	-47.570974	-16.883542	-47.570974	-16.883542	-0.396029	-142.476091
8.900000	-0.478869	-38.678213	-47.284630	-15.852397	-47.284630	-15.852397	-0.401259	-143.194476
8.950000	-0.486030	-41.044747	-46.985751	-14.962777	-46.985751	-14.962777	-0.406540	-143.913380
9.000000	-0.493667	-43.409395	-46.677907	-14.206606	-46.677907	-14.206606	-0.411872	-144.632823
9.050000	-0.501813	-45.773284	-46.363397	-13.579472	-46.363397	-13.579472	-0.417254	-145.352845
9.100000	-0.510526	-48.137721	-46.043567	-13.080572	-46.043567	-13.080572	-0.422691	-146.073513
9.150000	-0.519814	-50.504049	-45.721064	-12.695645	-45.721064	-12.695645	-0.428179	-146.794832
9.200000	-0.529714	-52.873677	-45.397299	-12.416786	-45.397299	-12.416786	-0.433721	-147.516837
9.250000	-0.540301	-55.248409	-45.072898	-12.240022	-45.072898	-12.240022	-0.439320	-148.239598
9.300000	-0.551601	-57.629808	-44.749233	-12.153461	-44.749233	-12.153461	-0.444978	-148.963131
9.350000	-0.563658	-60.019570	-44.427139	-12.148002	-44.427139	-12.148002	-0.450698	-149.687465
9.400000	-0.576554	-62.419931	-44.106859	-12.217962	-44.106859	-12.217962	-0.456486	-150.412673
9.450000	-0.590357	-64.833077	-43.788796	-12.355552	-43.788796	-12.355552	-0.462349	-151.138820
9.500000	-0.605116	-67.260892	-43.473460	-12.551857	-43.473460	-12.551857	-0.468294	-151.865962
9.550000	-0.620923	-69.705963	-43.160875	-12.801068	-43.160875	-12.801068	-0.474328	-152.594233
9.600000	-0.637909	-72.171648	-42.850814	-13.098432	-42.850814	-13.098432	-0.480456	-153.323840
9.650000	-0.656128	-74.659891	-42.543625	-13.436086	-42.543625	-13.436086	-0.486668	-154.054914
9.700000	-0.675692	-77.173646	-42.239208	-13.808916	-42.239208	-13.808916	-0.492942	-154.787617
9.750000	-0.696801	-79.717654	-41.937027	-14.213471	-41.937027	-14.213471	-0.499250	-155.522115
9.800000	-0.719544	-82.294328	-41.637236	-14.643799	-41.637236	-14.643799	-0.505561	-156.258291
9.850000	-0.744101	-84.907868	-41.339528	-15.095964	-41.339528	-15.095964	-0.511857	-156.996037
9.900000	-0.770661	-87.562515	-41.043646	-15.566021	-41.043646	-15.566021	-0.518141	-157.735221
9.950000	-0.799436	-90.262872	-40.749309	-16.050297	-40.749309	-16.050297	-0.524423	-158.475766
10.000000	-0.830665	-93.013938	-40.456214	-16.545357	-40.456214	-16.545357	-0.530719	-159.217666
