! freq	dB(S11)	phase(S11)	dB(S12)	phase(S12)	
!     	dB(S21)	phase(S21)	dB(S22)	phase(S22)	
!S-par simulation data
#  GHz  S  DB  R 50
0.000000	-0.000000	0.000000	-348.889025	180.000000	-348.889025	180.000000	-0.000000	0.000000
0.050000	-0.001027	-1.640599	-108.386405	89.007311	-108.386405	89.007311	-0.000508	-0.767288
0.100000	-0.003531	-3.273759	-102.410578	87.756347	-102.410578	87.756347	-0.001670	-1.530516
0.150000	-0.006498	-4.898119	-98.961074	86.582019	-98.961074	86.582019	-0.002939	-2.289559
0.200000	-0.009319	-6.515965	-96.568747	85.452277	-96.568747	85.452277	-0.004069	-3.046033
0.250000	-0.011872	-8.130389	-94.760963	84.363356	-94.760963	84.363356	-0.005068	-3.801418
0.300000	-0.014169	-9.742612	-93.337392	83.325100	-93.337392	83.325100	-0.005976	-4.556266
0.350000	-0.016279	-11.353319	-92.189466	82.348512	-92.189466	82.348512	-0.006840	-5.310863
0.400000	-0.018267	-12.962670	-91.254271	81.448318	-91.254271	81.448318	-0.007697	-6.065309
0.450000	-0.020175	-14.570417	-90.499600	80.651835	-90.499600	80.651835	-0.008570	-6.819618
0.500000	-0.022044	-16.176462	-89.889679	79.972002	-89.889679	79.972002	-0.009470	-7.573792
0.550000	-0.023893	-17.780524	-89.406621	79.434797	-89.406621	79.434797	-0.010399	-8.327807
0.600000	-0.025734	-19.382314	-89.038304	79.072649	-89.038304	79.072649	-0.011353	-9.081634
0.650000	-0.027574	-20.981543	-88.776640	78.926567	-88.776640	78.926567	-0.012328	-9.835229
0.700000	-0.029419	-22.577937	-88.616441	79.049075	-88.616441	79.049075	-0.013315	-10.588540
0.750000	-0.031270	-24.171026	-88.560448	79.534641	-88.560448	79.534641	-0.014306	-11.341472
0.800000	-0.033131	-25.760550	-88.605690	80.488664	-88.605690	80.488664	-0.015293	-12.093938
0.850000	-0.034999	-27.346340	-88.746433	82.043285	-88.746433	82.043285	-0.016272	-12.845858
0.900000	-0.036876	-28.928460	-88.970841	84.317518	-88.970841	84.317518	-0.017240	-13.597199
0.950000	-0.038758	-30.506490	-89.272111	87.571867	-89.272111	87.571867	-0.018198	-14.347856
1.000000	-0.040647	-32.080236	-89.624179	92.087829	-89.624179	92.087829	-0.019147	-15.097771
1.050000	-0.042539	-33.649721	-89.982270	98.090263	-89.982270	98.090263	-0.020088	-15.846933
1.100000	-0.044433	-35.214322	-90.250198	106.004933	-90.250198	106.004933	-0.021025	-16.595228
1.150000	-0.046328	-36.774128	-90.302331	115.688497	-90.302331	115.688497	-0.021960	-17.342676
1.200000	-0.048221	-38.328991	-90.007040	126.547852	-90.007040	126.547852	-0.022895	-18.089263
1.250000	-0.050111	-39.878774	-89.301027	137.464715	-89.301027	137.464715	-0.023831	-18.834978
1.300000	-0.051995	-41.423174	-88.222552	147.223154	-88.222552	147.223154	-0.024769	-19.579786
1.350000	-0.053872	-42.962238	-86.917074	155.209261	-86.917074	155.209261	-0.025710	-20.323711
1.400000	-0.055741	-44.495853	-85.511625	161.372082	-85.511625	161.372082	-0.026654	-21.066748
1.450000	-0.057601	-46.023916	-84.093242	165.948077	-84.093242	165.948077	-0.027601	-21.808894
1.500000	-0.059450	-47.546331	-82.710423	169.247506	-82.710423	169.247506	-0.028551	-22.550143
1.550000	-0.061288	-49.063008	-81.385903	171.554500	-81.385903	171.554500	-0.029503	-23.290492
1.600000	-0.063114	-50.573863	-80.127815	173.098082	-80.127815	173.098082	-0.030457	-24.029933
1.650000	-0.064927	-52.078819	-78.936784	174.053380	-78.936784	174.053380	-0.031413	-24.768461
1.700000	-0.066726	-53.577807	-77.809901	174.551723	-77.809901	174.551723	-0.032370	-25.506068
1.750000	-0.068513	-55.070760	-76.742810	174.691302	-76.742810	174.691302	-0.033329	-26.242746
1.800000	-0.070286	-56.557619	-75.730745	174.545912	-75.730745	174.545912	-0.034289	-26.978487
1.850000	-0.072046	-58.038332	-74.769041	174.171526	-74.769041	174.171526	-0.035249	-27.713282
1.900000	-0.073793	-59.512848	-73.853346	173.611073	-73.853346	173.611073	-0.036211	-28.447121
1.950000	-0.075527	-60.981126	-72.979706	172.897858	-72.979706	172.897858	-0.037173	-29.179994
2.000000	-0.077249	-62.443126	-72.144570	172.058022	-72.144570	172.058022	-0.038135	-29.911892
2.050000	-0.078959	-63.898816	-71.344770	171.112314	-71.344770	171.112314	-0.039099	-30.642803
2.100000	-0.080659	-65.348166	-70.577488	170.077376	-70.577488	170.077376	-0.040064	-31.372716
2.150000	-0.082348	-66.791153	-69.840215	168.966688	-69.840215	168.966688	-0.041030	-32.101621
2.200000	-0.084028	-68.227758	-69.130717	167.791273	-69.130717	167.791273	-0.041997	-32.829505
2.250000	-0.085699	-69.657965	-68.446996	166.560224	-68.446996	166.560224	-0.042965	-33.556359
2.300000	-0.087363	-71.081764	-67.787267	165.281098	-67.787267	165.281098	-0.043936	-34.282169
2.350000	-0.089020	-72.499149	-67.149925	163.960228	-67.149925	163.960228	-0.044908	-35.006925
2.400000	-0.090671	-73.910118	-66.533524	162.602953	-66.533524	162.602953	-0.045883	-35.730615
2.450000	-0.092318	-75.314672	-65.936761	161.213809	-65.936761	161.213809	-0.046861	-36.453227
2.500000	-0.093962	-76.712817	-65.358451	159.796668	-65.358451	159.796668	-0.047841	-37.174749
2.550000	-0.095603	-78.104286	-64.796706	158.353918	-64.796706	158.353918	-0.048825	-37.895122
2.600000	-0.097243	-79.489370	-64.251457	156.889593	-64.251457	156.889593	-0.049813	-38.614381
2.650000	-0.098883	-80.868088	-63.721798	155.406142	-63.721798	155.406142	-0.050805	-39.332514
2.700000	-0.100524	-82.240461	-63.206900	153.905703	-63.206900	153.905703	-0.051802	-40.049511
2.750000	-0.102167	-83.606513	-62.706001	152.390151	-62.706001	152.390151	-0.052803	-40.765360
2.800000	-0.103813	-84.966273	-62.218399	150.861139	-62.218399	150.861139	-0.053810	-41.480051
2.850000	-0.105464	-86.319771	-61.743450	149.320125	-61.743450	149.320125	-0.054822	-42.193572
2.900000	-0.107120	-87.667042	-61.280553	147.768403	-61.280553	147.768403	-0.055841	-42.905912
2.950000	-0.108782	-89.008124	-60.829157	146.207128	-60.829157	146.207128	-0.056865	-43.617061
3.000000	-0.110452	-90.343057	-60.388745	144.637326	-60.388745	144.637326	-0.057897	-44.327010
3.050000	-0.112130	-91.671885	-59.958840	143.059919	-59.958840	143.059919	-0.058936	-45.035746
3.100000	-0.113818	-92.994653	-59.538996	141.475736	-59.538996	141.475736	-0.059982	-45.743262
3.150000	-0.115517	-94.311412	-59.128796	139.885521	-59.128796	139.885521	-0.061037	-46.449547
3.200000	-0.117226	-95.622211	-58.727851	138.289948	-58.727851	138.289948	-0.062100	-47.154592
3.250000	-0.118949	-96.927107	-58.335795	136.689626	-58.335795	136.689626	-0.063171	-47.858388
3.300000	-0.120684	-98.226154	-57.952287	135.085110	-57.952287	135.085110	-0.064252	-48.560926
3.350000	-0.122434	-99.519413	-57.577003	133.476904	-57.577003	133.476904	-0.065342	-49.262197
3.400000	-0.124198	-100.806944	-57.209641	131.865466	-57.209641	131.865466	-0.066443	-49.962193
3.450000	-0.125978	-102.088811	-56.849916	130.251217	-56.849916	130.251217	-0.067553	-50.660907
3.500000	-0.127775	-103.365079	-56.497558	128.634542	-56.497558	128.634542	-0.068674	-51.358329
3.550000	-0.129590	-104.635816	-56.152312	127.015794	-56.152312	127.015794	-0.069806	-52.054454
3.600000	-0.131422	-105.901091	-55.813937	125.395298	-55.813937	125.395298	-0.070950	-52.749274
3.650000	-0.133274	-107.160976	-55.482206	123.773354	-55.482206	123.773354	-0.072105	-53.442782
3.700000	-0.135145	-108.415543	-55.156900	122.150238	-55.156900	122.150238	-0.073273	-54.134972
3.750000	-0.137036	-109.664868	-54.837815	120.526205	-54.837815	120.526205	-0.074453	-54.825837
3.800000	-0.138949	-110.908806	-54.524529	118.901472	-54.524529	118.901472	-0.075646	-55.515313
3.850000	-0.140883	-112.147664	-54.217102	117.276297	-54.217102	117.276297	-0.076853	-56.203454
3.900000	-0.142840	-113.381520	-53.915355	115.650882	-53.915355	115.650882	-0.078074	-56.890252
3.950000	-0.144820	-114.610456	-53.619120	114.025413	-53.619120	114.025413	-0.079308	-57.575704
4.000000	-0.146822	-115.834554	-53.328233	112.400066	-53.328233	112.400066	-0.080557	-58.259804
4.050000	-0.148849	-117.053898	-53.042539	110.775003	-53.042539	110.775003	-0.081821	-58.942549
4.100000	-0.150900	-118.268573	-52.761890	109.150376	-52.761890	109.150376	-0.083099	-59.623935
4.150000	-0.152976	-119.478664	-52.486144	107.526328	-52.486144	107.526328	-0.084394	-60.303957
4.200000	-0.155077	-120.684259	-52.215167	105.902990	-52.215167	105.902990	-0.085704	-60.982614
4.250000	-0.157204	-121.885445	-51.948827	104.280486	-51.948827	104.280486	-0.087030	-61.659900
4.300000	-0.159357	-123.082312	-51.687000	102.658932	-51.687000	102.658932	-0.088373	-62.335815
4.350000	-0.161537	-124.274949	-51.429566	101.038438	-51.429566	101.038438	-0.089733	-63.010355
4.400000	-0.163744	-125.463448	-51.176412	99.419102	-51.176412	99.419102	-0.091110	-63.683519
4.450000	-0.165978	-126.647898	-50.927426	97.801022	-50.927426	97.801022	-0.092505	-64.355304
4.500000	-0.168240	-127.828394	-50.682502	96.184285	-50.682502	96.184285	-0.093918	-65.025710
4.550000	-0.170530	-129.005027	-50.441539	94.568974	-50.441539	94.568974	-0.095349	-65.694734
4.600000	-0.172848	-130.177891	-50.204439	92.955167	-50.204439	92.955167	-0.096799	-66.362376
4.650000	-0.175195	-131.347081	-49.971107	91.342937	-49.971107	91.342937	-0.098268	-67.028637
4.700000	-0.177571	-132.512691	-49.741453	89.732351	-49.741453	89.732351	-0.099757	-67.693514
4.750000	-0.179976	-133.674816	-49.515388	88.123473	-49.515388	88.123473	-0.101265	-68.357009
4.800000	-0.182411	-134.833552	-49.292828	86.516361	-49.292828	86.516361	-0.102794	-69.019121
4.850000	-0.184875	-135.988996	-49.073692	84.911072	-49.073692	84.911072	-0.104344	-69.679852
4.900000	-0.187369	-137.141243	-48.857902	83.307655	-48.857902	83.307655	-0.105914	-70.339202
4.950000	-0.189894	-138.290391	-48.645380	81.706160	-48.645380	81.706160	-0.107506	-70.997172
5.000000	-0.192449	-139.436537	-48.436055	80.106631	-48.436055	80.106631	-0.109120	-71.653764
5.050000	-0.195035	-140.579657	-48.229778	78.509197	-48.229778	78.509197	-0.110757	-72.308920
5.100000	-0.197652	-141.719980	-48.026566	76.913813	-48.026566	76.913813	-0.112417	-72.962702
5.150000	-0.200301	-142.857603	-47.826351	75.320512	-47.826351	75.320512	-0.114099	-73.615112
5.200000	-0.202980	-143.992624	-47.629069	73.729328	-47.629069	73.729328	-0.115805	-74.266152
5.250000	-0.205690	-145.125144	-47.434659	72.140291	-47.434659	72.140291	-0.117534	-74.915827
5.300000	-0.208432	-146.255259	-47.243061	70.553430	-47.243061	70.553430	-0.119288	-75.564138
5.350000	-0.211204	-147.383069	-47.054216	68.968769	-47.054216	68.968769	-0.121066	-76.211090
5.400000	-0.214009	-148.508674	-46.868070	67.386334	-46.868070	67.386334	-0.122869	-76.856685
5.450000	-0.216844	-149.632171	-46.684568	65.806146	-46.684568	65.806146	-0.124697	-77.500928
5.500000	-0.219712	-150.753660	-46.503657	64.228227	-46.503657	64.228227	-0.126551	-78.143824
5.550000	-0.222611	-151.873241	-46.325288	62.652595	-46.325288	62.652595	-0.128431	-78.785375
5.600000	-0.225541	-152.991012	-46.149411	61.079268	-46.149411	61.079268	-0.130337	-79.425588
5.650000	-0.228503	-154.107073	-45.975979	59.508263	-45.975979	59.508263	-0.132271	-80.064467
5.700000	-0.231497	-155.221523	-45.804947	57.939596	-45.804947	57.939596	-0.134231	-80.702017
5.750000	-0.234522	-156.334461	-45.636271	56.373280	-45.636271	56.373280	-0.136219	-81.338243
5.800000	-0.237580	-157.445987	-45.469908	54.809331	-45.469908	54.809331	-0.138235	-81.973152
5.850000	-0.240668	-158.556199	-45.305816	53.247761	-45.305816	53.247761	-0.140280	-82.606749
5.900000	-0.243789	-159.665196	-45.143956	51.688582	-45.143956	51.688582	-0.142353	-83.239039
5.950000	-0.246941	-160.773078	-44.984289	50.131808	-44.984289	50.131808	-0.144456	-83.870031
6.000000	-0.250124	-161.879943	-44.826778	48.577449	-44.826778	48.577449	-0.146588	-84.499729
6.050000	-0.253339	-162.985890	-44.671387	47.025518	-44.671387	47.025518	-0.148750	-85.128141
6.100000	-0.256585	-164.091017	-44.518081	45.476027	-44.518081	45.476027	-0.150943	-85.755273
6.150000	-0.259863	-165.195424	-44.366826	43.928987	-44.366826	43.928987	-0.153166	-86.381134
6.200000	-0.263171	-166.299208	-44.217590	42.384409	-44.217590	42.384409	-0.155421	-87.005729
6.250000	-0.266511	-167.402467	-44.070341	40.842307	-44.070341	40.842307	-0.157707	-87.629068
6.300000	-0.269883	-168.505286	-43.925028	39.302802	-43.925028	39.302802	-0.160026	-88.251103
6.350000	-0.273286	-169.607784	-43.781646	37.765798	-43.781646	37.765798	-0.162378	-88.871897
6.400000	-0.276719	-170.710060	-43.640165	36.231311	-43.640165	36.231311	-0.164763	-89.491459
6.450000	-0.280183	-171.812210	-43.500558	34.699354	-43.500558	34.699354	-0.167181	-90.109798
6.500000	-0.283677	-172.914332	-43.362798	33.169942	-43.362798	33.169942	-0.169633	-90.726920
6.550000	-0.287202	-174.016523	-43.226860	31.643092	-43.226860	31.643092	-0.172119	-91.342836
6.600000	-0.290756	-175.118877	-43.092718	30.118820	-43.092718	30.118820	-0.174639	-91.957555
6.650000	-0.294340	-176.221493	-42.960347	28.597145	-42.960347	28.597145	-0.177194	-92.571085
6.700000	-0.297954	-177.324465	-42.829724	27.078086	-42.829724	27.078086	-0.179784	-93.183436
6.750000	-0.301597	-178.427889	-42.700827	25.561662	-42.700827	25.561662	-0.182409	-93.794618
6.800000	-0.305269	-179.531860	-42.573633	24.047895	-42.573633	24.047895	-0.185071	-94.404640
6.850000	-0.308971	179.363527	-42.448120	22.536808	-42.448120	22.536808	-0.187769	-95.013512
6.900000	-0.312700	178.258177	-42.324267	21.028424	-42.324267	21.028424	-0.190504	-95.621244
6.950000	-0.316458	177.151998	-42.202055	19.522769	-42.202055	19.522769	-0.193275	-96.227847
7.000000	-0.320245	176.044895	-42.081463	18.019869	-42.081463	18.019869	-0.196085	-96.833331
7.050000	-0.324059	174.936775	-41.962473	16.519752	-41.962473	16.519752	-0.198932	-97.437706
7.100000	-0.327900	173.827546	-41.845065	15.022447	-41.845065	15.022447	-0.201817	-98.040983
7.150000	-0.331769	172.717115	-41.729221	13.527985	-41.729221	13.527985	-0.204741	-98.643173
7.200000	-0.335665	171.605391	-41.614923	12.036399	-41.614923	12.036399	-0.207705	-99.244288
7.250000	-0.339587	170.492283	-41.502155	10.547720	-41.502155	10.547720	-0.210707	-99.844338
7.300000	-0.343535	169.377700	-41.390898	9.061986	-41.390898	9.061986	-0.213749	-100.443335
7.350000	-0.347510	168.261553	-41.281136	7.579230	-41.281136	7.579230	-0.216831	-101.041291
7.400000	-0.351510	167.143753	-41.172852	6.099493	-41.172852	6.099493	-0.219954	-101.638217
7.450000	-0.355535	166.024210	-41.066032	4.622811	-41.066032	4.622811	-0.223118	-102.234124
7.500000	-0.359585	164.902836	-40.960658	3.149226	-40.960658	3.149226	-0.226322	-102.829026
7.550000	-0.363660	163.779458	-40.856723	1.678918	-40.856723	1.678918	-0.229570	-103.422892
7.600000	-0.367759	162.654068	-40.754206	0.211795	-40.754206	0.211795	-0.232860	-104.015777
7.650000	-0.371882	161.526581	-40.653090	-1.252098	-40.653090	-1.252098	-0.236192	-104.607694
7.700000	-0.376027	160.396911	-40.553362	-2.712717	-40.553362	-2.712717	-0.239566	-105.198657
7.750000	-0.380196	159.264976	-40.455006	-4.170015	-40.455006	-4.170015	-0.242984	-105.788677
7.800000	-0.384387	158.130692	-40.358006	-5.623945	-40.358006	-5.623945	-0.246444	-106.377768
7.850000	-0.388599	156.993977	-40.262350	-7.074457	-40.262350	-7.074457	-0.249948	-106.965942
7.900000	-0.392833	155.854750	-40.168021	-8.521504	-40.168021	-8.521504	-0.253496	-107.553214
7.950000	-0.397088	154.712931	-40.075005	-9.965034	-40.075005	-9.965034	-0.257088	-108.139596
8.000000	-0.401363	153.568441	-39.983288	-11.404998	-39.983288	-11.404998	-0.260725	-108.725102
8.050000	-0.405658	152.421203	-39.892855	-12.841344	-39.892855	-12.841344	-0.264406	-109.309746
8.100000	-0.409972	151.271139	-39.803692	-14.274020	-39.803692	-14.274020	-0.268132	-109.893542
8.150000	-0.414305	150.118174	-39.715784	-15.702974	-39.715784	-15.702974	-0.271903	-110.476503
8.200000	-0.418657	148.962235	-39.629117	-17.128153	-39.629117	-17.128153	-0.275720	-111.058643
8.250000	-0.423026	147.803248	-39.543677	-18.549505	-39.543677	-18.549505	-0.279583	-111.639978
8.300000	-0.427413	146.641141	-39.459448	-19.966975	-39.459448	-19.966975	-0.283492	-112.220521
8.350000	-0.431816	145.475846	-39.376416	-21.380512	-39.376416	-21.380512	-0.287447	-112.800287
8.400000	-0.436236	144.307292	-39.294566	-22.790062	-39.294566	-22.790062	-0.291449	-113.379291
8.450000	-0.440671	143.135415	-39.213885	-24.195572	-39.213885	-24.195572	-0.295498	-113.957548
8.500000	-0.445121	141.960147	-39.134357	-25.596989	-39.134357	-25.596989	-0.299593	-114.535071
8.550000	-0.449586	140.781426	-39.055966	-26.994262	-39.055966	-26.994262	-0.303736	-115.111878
8.600000	-0.454065	139.599189	-38.978699	-28.387338	-38.978699	-28.387338	-0.307927	-115.687983
8.650000	-0.458557	138.413377	-38.902541	-29.776166	-38.902541	-29.776166	-0.312165	-116.263401
8.700000	-0.463062	137.223931	-38.827475	-31.160695	-38.827475	-31.160695	-0.316451	-116.838149
8.750000	-0.467579	136.030795	-38.753488	-32.540876	-38.753488	-32.540876	-0.320785	-117.412241
8.800000	-0.472108	134.833750	-38.680582	-33.916466	-38.680582	-33.916466	-0.325170	-117.985667
8.850000	-0.476647	133.632905	-38.608724	-35.287605	-38.608724	-35.287605	-0.329603	-118.558472
8.900000	-0.481198	132.428209	-38.537898	-36.654248	-38.537898	-36.654248	-0.334084	-119.130671
8.950000	-0.485757	131.219616	-38.468088	-38.016349	-38.468088	-38.016349	-0.338614	-119.702281
9.000000	-0.490326	130.007080	-38.399279	-39.373862	-38.399279	-39.373862	-0.343194	-120.273319
9.050000	-0.494904	128.790559	-38.331455	-40.726745	-38.331455	-40.726745	-0.347822	-120.843801
9.100000	-0.499489	127.570013	-38.264599	-42.074956	-38.264599	-42.074956	-0.352499	-121.413744
9.150000	-0.504082	126.345405	-38.198696	-43.418454	-38.198696	-43.418454	-0.357225	-121.983165
9.200000	-0.508681	125.116699	-38.133731	-44.757201	-38.133731	-44.757201	-0.362001	-122.552082
9.250000	-0.513286	123.883865	-38.069685	-46.091160	-38.069685	-46.091160	-0.366826	-123.120511
9.300000	-0.517897	122.646871	-38.006545	-47.420296	-38.006545	-47.420296	-0.371701	-123.688471
9.350000	-0.522513	121.405693	-37.944293	-48.744574	-37.944293	-48.744574	-0.376625	-124.255979
9.400000	-0.527133	120.160307	-37.882913	-50.063963	-37.882913	-50.063963	-0.381599	-124.823053
9.450000	-0.531757	118.910693	-37.822389	-51.378433	-37.822389	-51.378433	-0.386622	-125.389710
9.500000	-0.536384	117.656833	-37.762704	-52.687955	-37.762704	-52.687955	-0.391695	-125.955970
9.550000	-0.541014	116.398715	-37.703842	-53.992505	-37.703842	-53.992505	-0.396818	-126.521850
9.600000	-0.545645	115.136326	-37.645788	-55.292058	-37.645788	-55.292058	-0.401990	-127.087369
9.650000	-0.550278	113.869661	-37.588523	-56.586591	-37.588523	-56.586591	-0.407211	-127.652547
9.700000	-0.554912	112.598716	-37.532033	-57.876086	-37.532033	-57.876086	-0.412482	-128.217401
9.750000	-0.559547	111.323491	-37.476301	-59.160523	-37.476301	-59.160523	-0.417803	-128.781951
9.800000	-0.564181	110.043989	-37.421310	-60.439889	-37.421310	-60.439889	-0.423173	-129.346216
9.850000	-0.568815	108.760218	-37.367044	-61.714169	-37.367044	-61.714169	-0.428592	-129.910216
9.900000	-0.573448	107.472189	-37.313488	-62.983352	-37.313488	-62.983352	-0.434060	-130.473971
9.950000	-0.578079	106.179917	-37.260624	-64.247429	-37.260624	-64.247429	-0.439578	-131.037500
10.000000	-0.582709	104.883420	-37.208437	-65.506393	-37.208437	-65.506393	-0.445144	-131.600824
