! freq	dB(S11)	phase(S11)	dB(S12)	phase(S12)	
!     	dB(S21)	phase(S21)	dB(S22)	phase(S22)	
!S-par simulation data
#  GHz  S  DB  R 50
0.000000	-0.000000	-0.000000	-346.333905	180.000000	-346.333905	180.000000	-0.000000	-0.000000
0.050000	-0.000071	-0.805686	-85.203904	-164.267043	-85.203904	-164.267043	-0.000410	-1.089192
0.100000	-0.000283	-1.611241	-84.688367	179.225910	-84.688367	179.225910	-0.001526	-2.176085
0.150000	-0.000632	-2.416540	-84.533392	169.592618	-84.533392	169.592618	-0.003082	-3.259420
0.200000	-0.001110	-3.221470	-84.422397	161.951127	-84.422397	161.951127	-0.004818	-4.339138
0.250000	-0.001717	-4.025891	-84.317823	155.310222	-84.317823	155.310222	-0.006559	-5.415618
0.300000	-0.002431	-4.829752	-84.214902	149.247405	-84.214902	149.247405	-0.008221	-6.489873
0.350000	-0.003248	-5.632949	-84.116511	143.666028	-84.116511	143.666028	-0.009782	-7.562364
0.400000	-0.004155	-6.435411	-84.027520	138.499571	-84.027520	138.499571	-0.011248	-8.633511
0.450000	-0.005142	-7.237078	-83.953430	133.713371	-83.953430	133.713371	-0.012638	-9.703574
0.500000	-0.006196	-8.037905	-83.899769	129.287906	-83.899769	129.287906	-0.013972	-10.772688
0.550000	-0.007306	-8.837857	-83.871866	125.212314	-83.871866	125.212314	-0.015269	-11.840908
0.600000	-0.008461	-9.636910	-83.874799	121.482132	-83.874799	121.482132	-0.016545	-12.908241
0.650000	-0.009652	-10.435048	-83.913421	118.098969	-83.913421	118.098969	-0.017811	-13.974659
0.700000	-0.010869	-11.232262	-83.992421	115.071233	-83.992421	115.071233	-0.019075	-15.040120
0.750000	-0.012104	-12.028550	-84.116388	112.415615	-84.116388	112.415615	-0.020343	-16.104574
0.800000	-0.013351	-12.823915	-84.289846	110.159317	-84.289846	110.159317	-0.021619	-17.167964
0.850000	-0.014602	-13.618361	-84.517218	108.343188	-84.517218	108.343188	-0.022904	-18.230236
0.900000	-0.015853	-14.411895	-84.802639	107.026076	-84.802639	107.026076	-0.024199	-19.291334
0.950000	-0.017101	-15.204524	-85.149492	106.290734	-85.149492	106.290734	-0.025504	-20.351205
1.000000	-0.018340	-15.996257	-85.559437	106.251540	-85.559437	106.251540	-0.026820	-21.409801
1.050000	-0.019570	-16.787101	-86.030473	107.063688	-86.030473	107.063688	-0.028144	-22.467072
1.100000	-0.020787	-17.577063	-86.553354	108.931536	-86.553354	108.931536	-0.029477	-23.522974
1.150000	-0.021991	-18.366146	-87.105328	112.108835	-87.105328	112.108835	-0.030816	-24.577463
1.200000	-0.023180	-19.154355	-87.640561	116.872838	-87.640561	116.872838	-0.032161	-25.630501
1.250000	-0.024355	-19.941692	-88.079337	123.437769	-88.079337	123.437769	-0.033510	-26.682047
1.300000	-0.025514	-20.728118	-88.291489	131.818973	-88.291489	131.818973	-0.034861	-27.731999
1.350000	-0.026658	-21.513669	-88.163563	141.348462	-88.163563	141.348462	-0.036215	-28.780386
1.400000	-0.027788	-22.298342	-87.640947	150.987487	-87.640947	150.987487	-0.037570	-29.827176
1.450000	-0.028904	-23.082132	-86.770637	159.700435	-86.770637	159.700435	-0.038924	-30.872337
1.500000	-0.030007	-23.865031	-85.666310	166.884308	-85.666310	166.884308	-0.040278	-31.915839
1.550000	-0.031098	-24.647032	-84.445060	172.418158	-84.445060	172.418158	-0.041630	-32.957653
1.600000	-0.032177	-25.428124	-83.192290	176.471488	-83.192290	176.471488	-0.042981	-33.997750
1.650000	-0.033246	-26.208298	-81.958645	179.313571	-81.958645	179.313571	-0.044329	-35.036104
1.700000	-0.034306	-26.987542	-80.769745	-178.792294	-80.769745	-178.792294	-0.045674	-36.072689
1.750000	-0.035357	-27.765843	-79.636220	-177.626866	-79.636220	-177.626866	-0.047017	-37.107478
1.800000	-0.036400	-28.543189	-78.560603	-177.019560	-78.560603	-177.019560	-0.048357	-38.140448
1.850000	-0.037437	-29.319565	-77.541393	-176.841284	-77.541393	-176.841284	-0.049695	-39.171574
1.900000	-0.038468	-30.094957	-76.575261	-176.995156	-76.575261	-176.995156	-0.051030	-40.200833
1.950000	-0.039495	-30.869350	-75.658212	-177.408356	-75.658212	-177.408356	-0.052363	-41.228202
2.000000	-0.040517	-31.642729	-74.786164	-178.025799	-74.786164	-178.025799	-0.053694	-42.253661
2.050000	-0.041537	-32.415079	-73.955219	-178.805455	-73.955219	-178.805455	-0.055024	-43.277187
2.100000	-0.042554	-33.186383	-73.161785	-179.714948	-73.161785	-179.714948	-0.056352	-44.298760
2.150000	-0.043570	-33.956626	-72.402608	179.270896	-72.402608	179.270896	-0.057680	-45.318361
2.200000	-0.044585	-34.725793	-71.674767	178.171835	-71.674767	178.171835	-0.059007	-46.335971
2.250000	-0.045601	-35.493867	-70.975654	177.003507	-70.975654	177.003507	-0.060335	-47.351571
2.300000	-0.046617	-36.260832	-70.302942	175.778388	-70.302942	175.778388	-0.061663	-48.365145
2.350000	-0.047635	-37.026673	-69.654555	174.506504	-69.654555	174.506504	-0.062994	-49.376674
2.400000	-0.048654	-37.791373	-69.028641	173.195965	-69.028641	173.195965	-0.064326	-50.386144
2.450000	-0.049677	-38.554919	-68.423542	171.853367	-68.423542	171.853367	-0.065661	-51.393539
2.500000	-0.050702	-39.317294	-67.837770	170.484102	-67.837770	170.484102	-0.066999	-52.398846
2.550000	-0.051732	-40.078430	-67.269153	169.091802	-67.269153	169.091802	-0.068342	-53.401958
2.600000	-0.052766	-40.838366	-66.717407	167.681183	-66.717407	167.681183	-0.069689	-54.402954
2.650000	-0.053805	-41.597085	-66.181432	166.255191	-66.181432	166.255191	-0.071042	-55.401822
2.700000	-0.054850	-42.354573	-65.660235	164.816275	-65.660235	164.816275	-0.072401	-56.398551
2.750000	-0.055900	-43.110818	-65.152913	163.366473	-65.152913	163.366473	-0.073767	-57.393133
2.800000	-0.056957	-43.865806	-64.658645	161.907483	-64.658645	161.907483	-0.075140	-58.385557
2.850000	-0.058021	-44.619523	-64.176685	160.440719	-64.176685	160.440719	-0.076522	-59.375817
2.900000	-0.059092	-45.371956	-63.706348	158.967361	-63.706348	158.967361	-0.077912	-60.363904
2.950000	-0.060170	-46.123095	-63.247010	157.488393	-63.247010	157.488393	-0.079312	-61.349813
3.000000	-0.061257	-46.872926	-62.798097	156.004631	-62.798097	156.004631	-0.080722	-62.333539
3.050000	-0.062352	-47.621439	-62.359083	154.516755	-62.359083	154.516755	-0.082143	-63.315077
3.100000	-0.063455	-48.368621	-61.929483	153.025327	-61.929483	153.025327	-0.083575	-64.294424
3.150000	-0.064568	-49.114464	-61.508851	151.530810	-61.508851	151.530810	-0.085020	-65.271579
3.200000	-0.065691	-49.858956	-61.096774	150.033585	-61.096774	150.033585	-0.086477	-66.246539
3.250000	-0.066824	-50.602088	-60.692872	148.533965	-60.692872	148.533965	-0.087948	-67.219304
3.300000	-0.067966	-51.343851	-60.296792	147.032200	-60.296792	147.032200	-0.089432	-68.189875
3.350000	-0.069120	-52.084236	-59.908207	145.528494	-59.908207	145.528494	-0.090932	-69.158254
3.400000	-0.070285	-52.823234	-59.526815	144.023010	-59.526815	144.023010	-0.092447	-70.124443
3.450000	-0.071461	-53.560837	-59.152335	142.515873	-59.152335	142.515873	-0.093977	-71.088446
3.500000	-0.072649	-54.297039	-58.784505	141.007184	-58.784505	141.007184	-0.095525	-72.050267
3.550000	-0.073849	-55.031833	-58.423082	139.497018	-58.423082	139.497018	-0.097089	-73.009913
3.600000	-0.075061	-55.765211	-58.067841	137.985431	-58.067841	137.985431	-0.098671	-73.967388
3.650000	-0.076287	-56.497168	-57.718570	136.472466	-57.718570	136.472466	-0.100271	-74.922701
3.700000	-0.077525	-57.227699	-57.375073	134.958150	-57.375073	134.958150	-0.101890	-75.875860
3.750000	-0.078777	-57.956798	-57.037166	133.442505	-57.037166	133.442505	-0.103529	-76.826875
3.800000	-0.080044	-58.684398	-56.704364	131.925489	-56.704364	131.925489	-0.105188	-77.775663
3.850000	-0.081325	-59.410557	-56.376842	130.407168	-56.376842	130.407168	-0.106868	-78.722329
3.900000	-0.082621	-60.135273	-56.054449	128.887549	-56.054449	128.887549	-0.108570	-79.666885
3.950000	-0.083931	-60.858541	-55.737047	127.366639	-55.737047	127.366639	-0.110293	-80.609345
4.000000	-0.085257	-61.580359	-55.424501	125.844446	-55.424501	125.844446	-0.112038	-81.549722
4.050000	-0.086599	-62.300725	-55.116690	124.320980	-55.116690	124.320980	-0.113806	-82.488032
4.100000	-0.087957	-63.019638	-54.813496	122.796253	-54.813496	122.796253	-0.115597	-83.424290
4.150000	-0.089332	-63.737095	-54.514812	121.270283	-54.514812	121.270283	-0.117412	-84.358514
4.200000	-0.090723	-64.453097	-54.220534	119.743091	-54.220534	119.743091	-0.119251	-85.290720
4.250000	-0.092132	-65.167643	-53.930566	118.214704	-53.930566	118.214704	-0.121116	-86.220928
4.300000	-0.093559	-65.880733	-53.644818	116.685155	-53.644818	116.685155	-0.123005	-87.149157
4.350000	-0.095003	-66.592367	-53.363202	115.154484	-53.363202	115.154484	-0.124921	-88.075427
4.400000	-0.096466	-67.302548	-53.085639	113.622737	-53.085639	113.622737	-0.126863	-88.999759
4.450000	-0.097948	-68.011275	-52.812050	112.089967	-52.812050	112.089967	-0.128832	-89.922175
4.500000	-0.099449	-68.718552	-52.542364	110.556234	-52.542364	110.556234	-0.130828	-90.842697
4.550000	-0.100970	-69.424381	-52.276509	109.021605	-52.276509	109.021605	-0.132852	-91.761351
4.600000	-0.102510	-70.128763	-52.014421	107.486156	-52.014421	107.486156	-0.134905	-92.678159
4.650000	-0.104071	-70.831704	-51.756034	105.949967	-51.756034	105.949967	-0.136986	-93.593146
4.700000	-0.105653	-71.533205	-51.501289	104.413127	-51.501289	104.413127	-0.139097	-94.506340
4.750000	-0.107256	-72.233272	-51.250127	102.875731	-51.250127	102.875731	-0.141238	-95.417766
4.800000	-0.108881	-72.931908	-51.002491	101.337881	-51.002491	101.337881	-0.143409	-96.327453
4.850000	-0.110528	-73.629119	-50.758326	99.799686	-50.758326	99.799686	-0.145610	-97.235427
4.900000	-0.112197	-74.324910	-50.517580	98.261257	-50.517580	98.261257	-0.147843	-98.141720
4.950000	-0.113889	-75.019286	-50.280200	96.722716	-50.280200	96.722716	-0.150108	-99.046359
5.000000	-0.115604	-75.712254	-50.046136	95.184185	-50.046136	95.184185	-0.152405	-99.949376
5.050000	-0.117344	-76.403759	-49.815215	93.645806	-49.815215	93.645806	-0.154736	-100.850734
5.100000	-0.119108	-77.093869	-49.587523	92.107711	-49.587523	92.107711	-0.157101	-101.750537
5.150000	-0.120897	-77.782593	-49.363010	90.570036	-49.363010	90.570036	-0.159499	-102.648816
5.200000	-0.122710	-78.469937	-49.141628	89.032919	-49.141628	89.032919	-0.161931	-103.545605
5.250000	-0.124549	-79.155909	-48.923330	87.496503	-48.923330	87.496503	-0.164397	-104.440938
5.300000	-0.126414	-79.840518	-48.708068	85.960927	-48.708068	85.960927	-0.166899	-105.334851
5.350000	-0.128304	-80.523772	-48.495795	84.426335	-48.495795	84.426335	-0.169437	-106.227379
5.400000	-0.130222	-81.205681	-48.286463	82.892869	-48.286463	82.892869	-0.172010	-107.118558
5.450000	-0.132166	-81.886254	-48.080025	81.360670	-48.080025	81.360670	-0.174620	-108.008425
5.500000	-0.134137	-82.565501	-47.876434	79.829880	-47.876434	79.829880	-0.177266	-108.897018
5.550000	-0.136136	-83.243432	-47.675643	78.300634	-47.675643	78.300634	-0.179950	-109.784375
5.600000	-0.138164	-83.920057	-47.477603	76.773069	-47.477603	76.773069	-0.182672	-110.670535
5.650000	-0.140220	-84.595386	-47.282267	75.247315	-47.282267	75.247315	-0.185432	-111.555537
5.700000	-0.142305	-85.269432	-47.089587	73.723498	-47.089587	73.723498	-0.188231	-112.439423
5.750000	-0.144419	-85.942206	-46.899514	72.201742	-46.899514	72.201742	-0.191069	-113.322232
5.800000	-0.146563	-86.613719	-46.712000	70.682162	-46.712000	70.682162	-0.193946	-114.204007
5.850000	-0.148743	-87.283769	-46.526751	69.165294	-46.526751	69.165294	-0.196871	-115.084630
5.900000	-0.150954	-87.952530	-46.343914	67.650921	-46.343914	67.650921	-0.199838	-115.964264
5.950000	-0.153182	-88.620658	-46.164152	66.137879	-46.164152	66.137879	-0.202826	-116.843443
6.000000	-0.155459	-89.286886	-45.985997	64.628826	-45.985997	64.628826	-0.205879	-117.721257
6.050000	-0.157747	-89.952702	-45.810992	63.120714	-45.810992	63.120714	-0.208948	-118.598801
6.100000	-0.160090	-90.616456	-45.637333	61.617307	-45.637333	61.617307	-0.212089	-119.474993
6.150000	-0.162440	-91.280009	-45.466877	60.114391	-45.466877	60.114391	-0.215238	-120.351067
6.200000	-0.164851	-91.941351	-45.297524	58.616868	-45.297524	58.616868	-0.218469	-121.225838
6.250000	-0.167264	-92.602692	-45.131410	57.119346	-45.131410	57.119346	-0.221701	-122.100610
6.300000	-0.169746	-93.261685	-44.966171	55.627847	-44.966171	55.627847	-0.225024	-122.974169
6.350000	-0.172229	-93.920678	-44.804017	54.136349	-44.804017	54.136349	-0.228348	-123.847729
6.400000	-0.174777	-94.577579	-44.642881	52.650407	-44.642881	52.650407	-0.231757	-124.720373
6.450000	-0.177331	-95.234291	-44.484505	51.164969	-44.484505	51.164969	-0.235175	-125.592935
6.500000	-0.179946	-95.889160	-44.327263	49.684522	-44.327263	49.684522	-0.238672	-126.464847
6.550000	-0.182574	-96.543660	-44.172483	48.205073	-44.172483	48.205073	-0.242186	-127.336631
6.600000	-0.185258	-97.196557	-44.018937	46.729976	-44.018937	46.729976	-0.245773	-128.208000
6.650000	-0.187961	-97.848920	-43.867575	45.256330	-43.867575	45.256330	-0.249384	-129.079230
6.700000	-0.190715	-98.499909	-43.717533	43.786351	-43.717533	43.786351	-0.253062	-129.950248
6.750000	-0.193495	-99.150211	-43.569414	42.318206	-43.569414	42.318206	-0.256773	-130.821158
6.800000	-0.196320	-99.799358	-43.422696	40.853027	-43.422696	40.853027	-0.260544	-131.692021
6.850000	-0.199177	-100.447680	-43.277653	39.389966	-43.277653	39.389966	-0.264357	-132.562849
6.900000	-0.202075	-101.095053	-43.134087	37.929180	-43.134087	37.929180	-0.268222	-133.433758
6.950000	-0.205012	-101.741479	-42.991964	36.470669	-42.991964	36.470669	-0.272138	-134.304747
7.000000	-0.207984	-102.387152	-42.851392	35.013786	-42.851392	35.013786	-0.276099	-135.175909
7.050000	-0.211002	-103.031770	-42.712043	33.559180	-42.712043	33.559180	-0.280121	-136.047311
7.100000	-0.214049	-103.675818	-42.574319	32.105624	-42.574319	32.105624	-0.284180	-136.918935
7.150000	-0.217150	-104.318723	-42.437613	30.654167	-42.437613	30.654167	-0.288309	-137.791006
7.200000	-0.220273	-104.961225	-42.302607	29.203283	-42.302607	29.203283	-0.292467	-138.663310
7.250000	-0.223458	-105.602516	-42.168432	27.754117	-42.168432	27.754117	-0.296706	-139.536312
7.300000	-0.226658	-106.243557	-42.036029	26.305174	-42.036029	26.305174	-0.300964	-140.409515
7.350000	-0.229929	-106.883340	-41.904291	24.857344	-41.904291	24.857344	-0.305314	-141.283720
7.400000	-0.233209	-107.523007	-41.774395	23.409538	-41.774395	23.409538	-0.309676	-142.158048
7.450000	-0.236567	-108.161396	-41.645028	21.962005	-41.645028	21.962005	-0.314139	-143.033731
7.500000	-0.239926	-108.799785	-41.517559	20.514472	-41.517559	20.514472	-0.318604	-143.909414
7.550000	-0.243372	-109.436901	-41.390523	19.066127	-41.390523	19.066127	-0.323183	-144.786860
7.600000	-0.246820	-110.074018	-41.265319	17.617782	-41.265319	17.617782	-0.327763	-145.664305
7.650000	-0.250348	-110.710090	-41.140716	16.167628	-41.140716	16.167628	-0.332450	-146.543633
7.700000	-0.253886	-111.346067	-41.017769	14.717310	-41.017769	14.717310	-0.337147	-147.423131
7.750000	-0.257498	-111.981215	-40.895602	13.264360	-40.895602	13.264360	-0.341943	-148.304589
7.800000	-0.261127	-112.616197	-40.774945	11.810884	-40.774945	11.810884	-0.346760	-149.186439
7.850000	-0.264824	-113.250554	-40.655251	10.354159	-40.655251	10.354159	-0.351666	-150.070282
7.900000	-0.268545	-113.884703	-40.536957	8.896351	-40.536957	8.896351	-0.356604	-150.954788
7.950000	-0.272312	-114.518507	-40.419896	7.435909	-40.419896	7.435909	-0.361603	-151.840753
8.000000	-0.276132	-115.151965	-40.304054	5.972286	-40.304054	5.972286	-0.366672	-152.728425
8.050000	-0.279998	-115.785184	-40.189535	4.505671	-40.189535	4.505671	-0.371800	-153.617644
8.100000	-0.283910	-116.418215	-40.076387	3.035865	-40.076387	3.035865	-0.376988	-154.508484
8.150000	-0.287867	-117.051108	-39.964661	1.562701	-39.964661	1.562701	-0.382237	-155.401021
8.200000	-0.291871	-117.683921	-39.854418	0.086051	-39.854418	0.086051	-0.387548	-156.295331
8.250000	-0.295921	-118.316713	-39.745727	-1.394162	-39.745727	-1.394162	-0.392920	-157.191491
8.300000	-0.300018	-118.949548	-39.638664	-2.877957	-39.638664	-2.877957	-0.398353	-158.089581
8.350000	-0.304168	-119.582523	-39.533387	-4.365649	-39.533387	-4.365649	-0.403857	-158.989926
8.400000	-0.308361	-120.215664	-39.429862	-5.856486	-39.429862	-5.856486	-0.409419	-159.892201
8.450000	-0.312605	-120.849121	-39.328337	-7.350368	-39.328337	-7.350368	-0.415047	-160.796766
8.500000	-0.316882	-121.482791	-39.228506	-8.846305	-39.228506	-8.846305	-0.420720	-161.702875
8.550000	-0.321232	-122.117160	-39.131338	-10.345179	-39.131338	-10.345179	-0.426488	-162.612500
8.600000	-0.325604	-122.751785	-39.035772	-11.844596	-39.035772	-11.844596	-0.432288	-163.523236
8.650000	-0.330051	-123.387411	-38.943211	-13.344494	-38.943211	-13.344494	-0.438186	-164.437770
8.700000	-0.334533	-124.023634	-38.852672	-14.842874	-38.852672	-14.842874	-0.444129	-165.354094
8.750000	-0.339068	-124.660794	-38.764694	-16.338868	-38.764694	-16.338868	-0.450142	-166.273232
8.800000	-0.343661	-125.299259	-38.679508	-17.828068	-38.679508	-17.828068	-0.456230	-167.195548
8.850000	-0.348287	-125.938419	-38.596155	-19.313654	-38.596155	-19.313654	-0.462360	-168.119555
8.900000	-0.352996	-126.579925	-38.516128	-20.781610	-38.516128	-20.781610	-0.468595	-169.048277
8.950000	-0.357732	-127.222229	-38.437395	-22.242561	-38.437395	-22.242561	-0.474864	-169.978407
9.000000	-0.362547	-127.867189	-38.360885	-23.678989	-38.360885	-23.678989	-0.481229	-170.912979
9.050000	-0.367409	-128.513964	-38.284915	-25.097540	-38.284915	-25.097540	-0.487648	-171.850088
9.100000	-0.372329	-129.163006	-38.209446	-26.493747	-38.209446	-26.493747	-0.494134	-172.790366
9.150000	-0.377329	-129.815684	-38.131774	-27.858407	-38.131774	-27.858407	-0.500705	-173.734892
9.200000	-0.382365	-130.469859	-38.053627	-29.210077	-38.053627	-29.210077	-0.507314	-174.681167
9.250000	-0.387526	-131.130321	-37.967379	-30.529042	-37.967379	-30.529042	-0.514039	-175.633558
9.300000	-0.392729	-131.792895	-37.878487	-31.847240	-37.878487	-31.847240	-0.520800	-176.587682
9.350000	-0.398049	-132.461723	-37.780112	-33.165983	-37.780112	-33.165983	-0.527654	-177.546843
9.400000	-0.403467	-133.135771	-37.675412	-34.512046	-37.675412	-34.512046	-0.534571	-178.509454
9.450000	-0.408983	-133.815041	-37.564626	-35.885430	-37.564626	-35.885430	-0.541553	-179.475515
9.500000	-0.414694	-134.504599	-37.447222	-37.339593	-37.447222	-37.339593	-0.548629	179.552912
9.550000	-0.420479	-135.197825	-37.328878	-38.822277	-37.328878	-38.822277	-0.555742	178.579426
9.600000	-0.426615	-135.908178	-37.209956	-40.429322	-37.209956	-40.429322	-0.562975	177.598615
9.650000	-0.432910	-136.625371	-37.094388	-42.069931	-37.094388	-42.069931	-0.570249	176.615512
9.700000	-0.439589	-137.359180	-36.984527	-43.792056	-36.984527	-43.792056	-0.577614	175.626843
9.750000	-0.446569	-138.104582	-36.880145	-45.549081	-36.880145	-45.549081	-0.585031	174.635014
9.800000	-0.454225	-138.874427	-36.785457	-47.361074	-36.785457	-47.361074	-0.592541	173.637227
9.850000	-0.462656	-139.668993	-36.699423	-49.202871	-36.699423	-49.202871	-0.600128	172.634535
9.900000	-0.472116	-140.492791	-36.621708	-51.063922	-36.621708	-51.063922	-0.607788	171.627018
9.950000	-0.483167	-141.356547	-36.552761	-52.937943	-36.552761	-52.937943	-0.615529	170.614071
10.000000	-0.496162	-142.263146	-36.491011	-54.817565	-36.491011	-54.817565	-0.623341	169.596383
