! freq	dB(S11)	phase(S11)	dB(S12)	phase(S12)	
!     	dB(S21)	phase(S21)	dB(S22)	phase(S22)	
!S-par simulation data
#  GHz  S  DB  R 50
0.000000	-86.860171	0.000000	-0.000394	0.000000	-0.000394	0.000000	-86.860171	0.000000
0.050000	-35.561018	-92.329031	-0.006551	-2.618581	-0.006551	-2.618581	-35.561143	-92.475876
0.100000	-29.584714	-95.045248	-0.014090	-5.199949	-0.014090	-5.199949	-29.583373	-95.318642
0.150000	-26.104798	-97.723781	-0.023025	-7.776438	-0.023025	-7.776438	-26.104052	-98.142110
0.200000	-23.646924	-100.346251	-0.034310	-10.347867	-0.034310	-10.347867	-23.646827	-100.921423
0.250000	-21.749663	-102.920834	-0.047932	-12.912526	-0.047932	-12.912526	-21.750058	-103.654854
0.300000	-20.208389	-105.459215	-0.063792	-15.469226	-0.063792	-15.469226	-20.209157	-106.349915
0.350000	-18.913435	-107.972179	-0.081661	-18.017694	-0.081661	-18.017694	-18.914460	-109.016497
0.400000	-17.800436	-110.465142	-0.101474	-20.557257	-0.101474	-20.557257	-17.801596	-111.660272
0.450000	-16.827028	-112.942397	-0.123048	-23.087906	-0.123048	-23.087906	-16.828213	-114.286385
0.500000	-15.965128	-115.405410	-0.146335	-25.608998	-0.146335	-25.608998	-15.966246	-116.897021
0.550000	-15.194057	-117.855413	-0.171205	-28.120325	-0.171205	-28.120325	-15.195038	-119.494079
0.600000	-14.498963	-120.292566	-0.197587	-30.621285	-0.197587	-30.621285	-14.499758	-122.078203
0.650000	-13.868260	-122.717005	-0.225374	-33.111493	-0.225374	-33.111493	-13.868838	-124.649886
0.700000	-13.292986	-125.128610	-0.254461	-35.590499	-0.254461	-35.590499	-13.293333	-127.209252
0.750000	-12.766094	-127.527098	-0.284748	-38.057794	-0.284748	-38.057794	-12.766204	-129.756182
0.800000	-12.281595	-129.912458	-0.316106	-40.513173	-0.316106	-40.513173	-12.281475	-132.290752
0.850000	-11.835001	-132.284204	-0.348433	-42.956038	-0.348433	-42.956038	-11.834661	-134.812547
0.900000	-11.421959	-134.642578	-0.381585	-45.386487	-0.381585	-45.386487	-11.421417	-137.321805
0.950000	-11.039560	-136.986963	-0.415457	-47.803842	-0.415457	-47.803842	-11.038837	-139.817944
1.000000	-10.684487	-139.317811	-0.449902	-50.208442	-0.449902	-50.208442	-10.683604	-142.301372
1.050000	-10.354643	-141.634675	-0.484801	-52.599798	-0.484801	-52.599798	-10.353624	-144.771649
1.100000	-10.047606	-143.937939	-0.520020	-54.978216	-0.520020	-54.978216	-10.046473	-147.229116
1.150000	-9.761703	-146.227454	-0.555433	-57.343513	-0.555433	-57.343513	-9.760478	-149.673616
1.200000	-9.495180	-148.503499	-0.590914	-59.695923	-0.590914	-59.695923	-9.493885	-152.105397
1.250000	-9.246618	-150.766228	-0.626339	-62.035572	-0.626339	-62.035572	-9.245270	-154.524593
1.300000	-9.014771	-153.015815	-0.661587	-64.362613	-0.661587	-64.362613	-9.013387	-156.931365
1.350000	-8.798415	-155.252633	-0.696544	-66.677402	-0.696544	-66.677402	-8.797009	-159.326063
1.400000	-8.596737	-157.476707	-0.731084	-68.979968	-0.731084	-68.979968	-8.595319	-161.708719
1.450000	-8.408558	-159.688726	-0.765113	-71.270984	-0.765113	-71.270984	-8.407137	-164.079992
1.500000	-8.232886	-161.889282	-0.798548	-73.551034	-0.798548	-73.551034	-8.231466	-166.440452
1.550000	-8.069072	-164.078637	-0.831288	-75.820395	-0.831288	-75.820395	-8.067655	-168.790365
1.600000	-7.917008	-166.256494	-0.863175	-78.078815	-0.863175	-78.078815	-7.915593	-171.129472
1.650000	-7.775392	-168.424202	-0.894198	-80.327615	-0.894198	-80.327615	-7.773976	-173.459065
1.700000	-7.643718	-170.582158	-0.924275	-82.567211	-0.924275	-82.567211	-7.642297	-175.779540
1.750000	-7.521684	-172.730606	-0.953305	-84.797876	-0.953305	-84.797876	-7.520249	-178.091151
1.800000	-7.408742	-174.870166	-0.981230	-87.020242	-0.981230	-87.020242	-7.407283	179.605496
1.850000	-7.304461	-177.001380	-1.007987	-89.234868	-1.007987	-89.234868	-7.302968	177.309870
1.900000	-7.208524	-179.124723	-1.033506	-91.442250	-1.033506	-91.442250	-7.206984	175.021502
1.950000	-7.120565	178.759220	-1.057734	-93.642988	-1.057734	-93.642988	-7.118964	172.739826
2.000000	-7.040181	176.649790	-1.080641	-95.837745	-1.080641	-95.837745	-7.038505	170.464212
2.050000	-6.967072	174.546405	-1.102187	-98.027113	-1.102187	-98.027113	-6.965306	168.194103
2.100000	-6.900966	172.448476	-1.122338	-100.211684	-1.122338	-100.211684	-6.899094	165.928944
2.150000	-6.841615	170.355409	-1.141065	-102.392055	-1.141065	-102.392055	-6.839621	163.668182
2.200000	-6.788792	168.266609	-1.158343	-104.568817	-1.158343	-104.568817	-6.786661	161.411266
2.250000	-6.742294	166.181478	-1.174154	-106.742564	-1.174154	-106.742564	-6.740008	159.157652
2.300000	-6.701934	164.099414	-1.188482	-108.913880	-1.188482	-108.913880	-6.699478	156.906803
2.350000	-6.667547	162.019820	-1.201319	-111.083350	-1.201319	-111.083350	-6.664904	154.658191
2.400000	-6.638981	159.942095	-1.212657	-113.251548	-1.212657	-113.251548	-6.636136	152.411299
2.450000	-6.616104	157.865644	-1.222496	-115.419042	-1.222496	-115.419042	-6.613040	150.165623
2.500000	-6.598796	155.789870	-1.230837	-117.586391	-1.230837	-117.586391	-6.595498	147.920673
2.550000	-6.587070	153.714172	-1.237657	-119.754167	-1.237657	-119.754167	-6.583522	145.675967
2.600000	-6.580716	151.637945	-1.242997	-121.922912	-1.242997	-121.922912	-6.576902	143.431034
2.650000	-6.579656	149.560607	-1.246872	-124.093151	-1.246872	-124.093151	-6.575560	141.185434
2.700000	-6.583824	147.481578	-1.249300	-126.265401	-1.249300	-126.265401	-6.579431	138.938750
2.750000	-6.593169	145.400284	-1.250301	-128.440163	-1.250301	-128.440163	-6.588461	136.690585
2.800000	-6.607646	143.316156	-1.249900	-130.617926	-1.249900	-130.617926	-6.602607	134.440567
2.850000	-6.627225	141.228631	-1.248124	-132.799164	-1.248124	-132.799164	-6.621838	132.188346
2.900000	-6.651885	139.137149	-1.245004	-134.984336	-1.245004	-134.984336	-6.646131	129.933599
2.950000	-6.681613	137.041159	-1.240572	-137.173888	-1.240572	-137.173888	-6.675473	127.676033
3.000000	-6.716409	134.940112	-1.234864	-139.368248	-1.234864	-139.368248	-6.709862	125.415384
3.050000	-6.756280	132.833466	-1.227918	-141.567827	-1.227918	-141.567827	-6.749304	123.151416
3.100000	-6.801242	130.720684	-1.219775	-143.773022	-1.219775	-143.773022	-6.793813	120.883931
3.150000	-6.851373	128.601154	-1.210467	-145.984280	-1.210467	-145.984280	-6.843465	118.612721
3.200000	-6.906707	126.474329	-1.200039	-148.201972	-1.200039	-148.201972	-6.898290	116.337658
3.250000	-6.967233	124.339755	-1.188552	-150.426373	-1.188552	-150.426373	-6.958275	114.058694
3.300000	-7.033001	122.196908	-1.176055	-152.657806	-1.176055	-152.657806	-7.023469	111.775788
3.350000	-7.104208	120.044996	-1.162572	-154.896795	-1.162572	-154.896795	-7.094062	109.488827
3.400000	-7.180434	117.884465	-1.148251	-157.142834	-1.148251	-157.142834	-7.169635	107.198259
3.450000	-7.262490	115.713282	-1.133007	-159.397401	-1.133007	-159.397401	-7.250989	104.903586
3.500000	-7.349820	113.532278	-1.117010	-161.659660	-1.117010	-161.659660	-7.337569	102.605465
3.550000	-7.442877	111.340102	-1.100257	-163.930468	-1.100257	-163.930468	-7.429818	100.303829
3.600000	-7.541670	109.136428	-1.082820	-166.209862	-1.082820	-166.209862	-7.527742	97.999013
3.650000	-7.646124	106.921161	-1.064784	-168.497688	-1.064784	-168.497688	-7.631260	95.691463
3.700000	-7.756799	104.692544	-1.046149	-170.794955	-1.046149	-170.794955	-7.740922	93.381330
3.750000	-7.873108	102.451996	-1.027062	-173.100412	-1.027062	-173.100412	-7.856140	91.069415
3.800000	-7.996149	100.196033	-1.007478	-175.416106	-1.007478	-175.416106	-7.977991	88.755936
3.850000	-8.125098	97.926996	-0.987556	-177.740179	-0.987556	-177.740179	-8.105656	86.441781
3.900000	-8.260793	95.641964	-0.967297	179.925871	-0.967297	179.925871	-8.239951	84.127605
3.950000	-8.402965	93.341721	-0.946793	177.582897	-0.946793	177.582897	-8.380603	81.814204
4.000000	-8.551946	91.024907	-0.926095	175.230515	-0.926095	175.230515	-8.527926	79.502554
4.050000	-8.707997	88.690404	-0.905261	172.868543	-0.905261	172.868543	-8.682164	77.193748
4.100000	-8.870972	86.338736	-0.884362	170.497725	-0.884362	170.497725	-8.843164	74.888680
4.150000	-9.041634	83.966451	-0.863445	168.116842	-0.863445	168.116842	-9.011653	72.589300
4.200000	-9.219477	81.575953	-0.842575	165.727572	-0.842575	165.727572	-9.187122	70.296010
4.250000	-9.405493	79.162140	-0.821816	163.328224	-0.821816	163.328224	-9.370514	68.011910
4.300000	-9.599233	76.727563	-0.801209	160.920489	-0.801209	160.920489	-9.561375	65.737225
4.350000	-9.801383	74.268233	-0.780825	158.503450	-0.780825	158.503450	-9.760337	63.475209
4.400000	-10.011994	71.784084	-0.760706	156.077767	-0.760706	156.077767	-9.967421	61.227308
4.450000	-10.231339	69.273478	-0.740902	153.643601	-0.740902	153.643601	-10.182856	58.995954
4.500000	-10.459911	66.732958	-0.721480	151.200642	-0.721480	151.200642	-10.407065	56.784924
4.550000	-10.697648	64.163947	-0.702445	148.750048	-0.702445	148.750048	-10.639954	54.594740
4.600000	-10.945406	61.558517	-0.683911	146.290626	-0.683911	146.290626	-10.882251	52.433040
4.650000	-11.202985	58.920665	-0.665837	143.824131	-0.665837	143.824131	-11.133731	50.298239
4.700000	-11.471210	56.240960	-0.648344	141.349470	-0.648344	141.349470	-11.395049	48.200001
4.750000	-11.750154	53.521457	-0.631400	138.867902	-0.631400	138.867902	-11.666210	46.138139
4.800000	-12.040397	50.754969	-0.615081	136.379130	-0.615081	136.379130	-11.947606	44.120957
4.850000	-12.342346	47.938062	-0.599406	133.883559	-0.599406	133.883559	-12.239479	42.153355
4.900000	-12.656413	45.067828	-0.584379	131.381718	-0.584379	131.381718	-12.542053	40.239741
4.950000	-12.983178	42.132894	-0.570089	128.873278	-0.570089	128.873278	-12.855581	38.393214
5.000000	-13.323067	39.136806	-0.556453	126.359454	-0.556453	126.359454	-13.180321	36.611334
5.050000	-13.676639	36.060733	-0.543602	123.839581	-0.543602	123.839581	-13.516303	34.915261
5.100000	-14.044386	32.900681	-0.531506	121.314368	-0.531506	121.314368	-13.863643	33.310326
5.150000	-14.426824	29.646497	-0.520177	118.784101	-0.520177	118.784101	-14.222319	31.808193
5.200000	-14.824441	26.286401	-0.509626	116.249065	-0.509626	116.249065	-14.592175	30.421962
5.250000	-15.237673	22.806699	-0.499862	113.709542	-0.499862	113.709542	-14.972871	29.166307
5.300000	-15.666864	19.191456	-0.490892	111.165808	-0.490892	111.165808	-15.363821	28.057598
5.350000	-16.112208	15.422126	-0.482719	108.618133	-0.482719	108.618133	-15.764115	27.113973
5.400000	-16.573672	11.477141	-0.475345	106.066783	-0.475345	106.066783	-16.172419	26.355336
5.450000	-17.050882	7.331488	-0.468772	103.512016	-0.468772	103.512016	-16.586850	25.803209
5.500000	-17.542968	2.956318	-0.462997	100.954083	-0.462997	100.954083	-17.004833	25.480373
5.550000	-18.048357	-1.681342	-0.458017	98.393227	-0.458017	98.393227	-17.422932	25.410186
5.600000	-18.564484	-6.618618	-0.453829	95.829682	-0.453829	95.829682	-17.836675	25.615455
5.650000	-19.087102	-11.900538	-0.450435	93.263653	-0.450435	93.263653	-18.240011	26.120118
5.700000	-19.610236	-17.571822	-0.447828	90.695367	-0.447828	90.695367	-18.625745	26.940275
5.750000	-20.126015	-23.671494	-0.445992	88.125061	-0.445992	88.125061	-18.985872	28.079898
5.800000	-20.623502	-30.236797	-0.444919	85.552940	-0.444919	85.552940	-19.310974	29.534243
5.850000	-21.088684	-37.292094	-0.444599	82.979200	-0.444599	82.979200	-19.591011	31.282911
5.900000	-21.504655	-44.839039	-0.445022	80.404032	-0.445022	80.404032	-19.816076	33.287052
5.950000	-21.852593	-52.845685	-0.446178	77.827618	-0.446178	77.827618	-19.977416	35.488609
6.000000	-22.113772	-61.237698	-0.448055	75.250135	-0.448055	75.250135	-20.068539	37.812560
6.050000	-22.272461	-69.896307	-0.450642	72.671752	-0.450642	72.671752	-20.086157	40.172447
6.100000	-22.319055	-78.666943	-0.453927	70.092633	-0.453927	70.092633	-20.030705	42.478435
6.150000	-22.252267	-87.378803	-0.457897	67.512934	-0.457897	67.512934	-19.906266	44.646173
6.200000	-22.079448	-95.870035	-0.462539	64.932806	-0.462539	64.932806	-19.719922	46.604401
6.250000	-21.814849	-104.009961	-0.467839	62.352393	-0.467839	62.352393	-19.480745	48.299741
6.300000	-21.475115	-111.700878	-0.473798	59.771833	-0.473798	59.771833	-19.197754	49.691334
6.350000	-21.081337	-118.910343	-0.480387	57.191262	-0.480387	57.191262	-18.882064	50.769950
6.400000	-20.650893	-125.634044	-0.487592	54.610806	-0.487592	54.610806	-18.542715	51.535081
6.450000	-20.198398	-131.892551	-0.495399	52.030584	-0.495399	52.030584	-18.187569	51.996838
6.500000	-19.735374	-137.721128	-0.503793	49.450707	-0.503793	49.450707	-17.823172	52.172365
6.550000	-19.270461	-143.161855	-0.512761	46.871282	-0.512761	46.871282	-17.454788	52.082858
6.600000	-18.809859	-148.258303	-0.522288	44.292412	-0.522288	44.292412	-17.086531	51.751311
6.650000	-18.357839	-153.052330	-0.532359	41.714191	-0.532359	41.714191	-16.721522	51.200953
6.700000	-17.917209	-157.582412	-0.542961	39.136711	-0.542961	39.136711	-16.362075	50.454225
6.750000	-17.489696	-161.882966	-0.554080	36.560058	-0.554080	36.560058	-16.009851	49.532196
6.800000	-17.076256	-165.984251	-0.565703	33.984315	-0.565703	33.984315	-15.666000	48.454250
6.850000	-16.677301	-169.912596	-0.577815	31.409559	-0.577815	31.409559	-15.331281	47.237992
6.900000	-16.292845	-173.689361	-0.590410	28.835879	-0.590410	28.835879	-15.006131	45.898087
6.950000	-15.922703	-177.334740	-0.603473	26.263348	-0.603473	26.263348	-14.690812	44.449124
7.000000	-15.566517	179.132905	-0.616988	23.692027	-0.616988	23.692027	-14.385412	42.904941
7.050000	-15.223800	175.699153	-0.630943	21.121982	-0.630943	21.121982	-14.089872	41.276660
7.100000	-14.894009	172.351560	-0.645324	18.553280	-0.645324	18.553280	-13.804049	39.574150
7.150000	-14.576579	169.079369	-0.660122	15.985988	-0.660122	15.985988	-13.527740	37.806172
7.200000	-14.270936	165.873261	-0.675324	13.420170	-0.675324	13.420170	-13.260702	35.980502
7.250000	-13.976519	162.725148	-0.690919	10.855891	-0.690919	10.855891	-13.002670	34.104048
7.300000	-13.692784	159.627988	-0.706895	8.293217	-0.706895	8.293217	-12.753363	32.182950
7.350000	-13.419208	156.575647	-0.723243	5.732213	-0.723243	5.732213	-12.512495	30.222674
7.400000	-13.155298	153.562762	-0.739950	3.172945	-0.739950	3.172945	-12.279780	28.228087
7.450000	-12.900589	150.584642	-0.757005	0.615479	-0.757005	0.615479	-12.054936	26.203533
7.500000	-12.654642	147.637176	-0.774396	-1.940116	-0.774396	-1.940116	-11.837687	24.152889
7.550000	-12.417087	144.717275	-0.792119	-4.493729	-0.792119	-4.493729	-11.627815	22.079200
7.600000	-12.187509	141.821137	-0.810153	-7.045331	-0.810153	-7.045331	-11.425022	19.986111
7.650000	-11.965554	138.946010	-0.828487	-9.594851	-0.828487	-9.594851	-11.229063	17.876375
7.700000	-11.750894	136.089484	-0.847108	-12.142220	-0.847108	-12.142220	-11.039704	15.752458
7.750000	-11.543224	133.249444	-0.866002	-14.687365	-0.866002	-14.687365	-10.856725	13.616567
7.800000	-11.342261	130.424044	-0.885154	-17.230216	-0.885154	-17.230216	-10.679918	11.470680
7.850000	-11.147744	127.611674	-0.904550	-19.770701	-0.904550	-19.770701	-10.509084	9.316566
7.900000	-10.959432	124.810939	-0.924175	-22.308750	-0.924175	-22.308750	-10.344039	7.155806
7.950000	-10.777101	122.020630	-0.944011	-24.844294	-0.944011	-24.844294	-10.184606	4.989811
8.000000	-10.600542	119.239713	-0.964042	-27.377262	-0.964042	-27.377262	-10.030623	2.819837
8.050000	-10.429564	116.467304	-0.984249	-29.907591	-0.984249	-29.907591	-9.881935	0.646999
8.100000	-10.263987	113.702660	-1.004613	-32.435214	-1.004613	-32.435214	-9.738398	-1.527716
8.150000	-10.103671	110.945230	-1.025114	-34.960040	-1.025114	-34.960040	-9.599907	-3.703442
8.200000	-9.948460	108.194492	-1.045730	-37.482011	-1.045730	-37.482011	-9.466337	-5.879396
8.250000	-9.798188	105.449962	-1.066439	-40.001103	-1.066439	-40.001103	-9.337541	-8.054916
8.300000	-9.652721	102.711321	-1.087216	-42.517268	-1.087216	-42.517268	-9.213410	-10.229439
8.350000	-9.512000	99.978485	-1.108036	-45.030377	-1.108036	-45.030377	-9.093925	-12.402436
8.400000	-9.375665	97.250719	-1.128877	-47.540703	-1.128877	-47.540703	-8.978697	-14.573710
8.450000	-9.243977	94.528744	-1.149706	-50.047745	-1.149706	-50.047745	-8.868092	-16.742615
8.500000	-9.116509	91.811766	-1.170504	-52.551894	-1.170504	-52.551894	-8.761634	-18.909207
8.550000	-8.993351	89.100163	-1.191235	-55.052900	-1.191235	-55.052900	-8.659479	-21.073108
8.600000	-8.874365	86.393834	-1.211871	-57.550819	-1.211871	-57.550819	-8.561505	-23.234245
8.650000	-8.759373	83.692598	-1.232389	-60.045775	-1.232389	-60.045775	-8.467534	-25.392661
8.700000	-8.648540	80.997009	-1.252740	-62.537489	-1.252740	-62.537489	-8.377809	-27.548075
8.750000	-8.541401	78.306293	-1.272924	-65.026458	-1.272924	-65.026458	-8.291806	-29.700962
8.800000	-8.438441	75.621656	-1.292857	-67.512084	-1.292857	-67.512084	-8.210150	-31.850843
8.850000	-8.339048	72.941998	-1.312563	-69.995050	-1.312563	-69.995050	-8.132135	-33.998421
8.900000	-8.243585	70.268223	-1.331960	-72.474973	-1.331960	-72.474973	-8.058230	-36.143512
8.950000	-8.151748	67.599839	-1.351048	-74.952206	-1.351048	-74.952206	-7.988098	-38.286571
9.000000	-8.063615	64.937098	-1.369778	-77.426735	-1.369778	-77.426735	-7.921852	-40.427805
9.050000	-7.979215	62.280133	-1.388107	-79.898619	-1.388107	-79.898619	-7.859547	-42.567511
9.100000	-7.898319	59.628524	-1.406035	-82.368174	-1.406035	-82.368174	-7.800918	-44.706156
9.150000	-7.821322	56.983042	-1.423462	-84.835221	-1.423462	-84.835221	-7.746440	-46.844039
9.200000	-7.747721	54.342705	-1.440443	-87.300304	-1.440443	-87.300304	-7.695509	-48.981694
9.250000	-7.678138	51.708611	-1.456838	-89.763198	-1.456838	-89.763198	-7.648840	-51.119630
9.300000	-7.612069	49.079787	-1.472713	-92.224428	-1.472713	-92.224428	-7.605823	-53.258305
9.350000	-7.549952	46.456923	-1.487964	-94.684002	-1.487964	-94.684002	-7.566925	-55.398419
9.400000	-7.491666	43.839749	-1.502597	-97.142234	-1.502597	-97.142234	-7.531965	-57.540500
9.450000	-7.437305	41.228367	-1.516581	-99.599365	-1.516581	-99.599365	-7.500995	-59.685209
9.500000	-7.387193	38.623289	-1.529844	-102.055603	-1.529844	-102.055603	-7.474301	-61.833434
9.550000	-7.341009	36.024037	-1.542443	-104.511308	-1.542443	-104.511308	-7.451481	-63.985479
9.600000	-7.299605	33.432081	-1.554219	-106.966713	-1.554219	-106.966713	-7.433337	-66.142950
9.650000	-7.262326	30.846559	-1.565296	-109.422164	-1.565296	-109.422164	-7.419135	-68.305668
9.700000	-7.230120	28.269355	-1.575512	-111.878038	-1.575512	-111.878038	-7.409734	-70.475607
9.750000	-7.202546	25.700146	-1.584955	-114.334622	-1.584955	-114.334622	-7.404638	-72.652758
9.800000	-7.180177	23.140559	-1.593544	-116.792360	-1.593544	-116.792360	-7.404325	-74.838730
9.850000	-7.163113	20.591546	-1.601276	-119.251625	-1.601276	-119.251625	-7.408840	-77.034398
9.900000	-7.151350	18.054026	-1.608173	-121.712763	-1.608173	-121.712763	-7.418142	-79.240464
9.950000	-7.145622	15.530835	-1.614139	-124.176418	-1.614139	-124.176418	-7.432882	-81.459196
10.000000	-7.145221	13.021528	-1.619303	-126.642632	-1.619303	-126.642632	-7.452434	-83.689853
