! freq	dB(S11)	phase(S11)	dB(S12)	phase(S12)	
!     	dB(S21)	phase(S21)	dB(S22)	phase(S22)	
!S-par simulation data
#  GHz  S  DB  R 50
0.000000	-0.000000	-0.000000	-375.865646	180.000000	-375.865646	180.000000	-0.000000	-0.000000
0.050000	-0.000098	-0.970094	-95.474154	10.291910	-95.474154	10.291910	-0.000064	-0.757857
0.100000	-0.000390	-1.939982	-95.400622	10.556795	-95.400622	10.556795	-0.000254	-1.515603
0.150000	-0.000869	-2.909470	-95.348482	12.913733	-95.348482	12.913733	-0.000567	-2.273130
0.200000	-0.001521	-3.878385	-95.293613	15.675978	-95.293613	15.675978	-0.000997	-3.030342
0.250000	-0.002341	-4.846516	-95.240587	18.481660	-95.240587	18.481660	-0.001545	-3.787117
0.300000	-0.003300	-5.813797	-95.197899	21.202200	-95.197899	21.202200	-0.002191	-4.543408
0.350000	-0.004385	-6.780083	-95.175400	23.789670	-95.175400	23.789670	-0.002933	-5.299122
0.400000	-0.005577	-7.745282	-95.183827	26.229045	-95.183827	26.229045	-0.003761	-6.054194
0.450000	-0.006859	-8.709328	-95.234598	28.527915	-95.234598	28.527915	-0.004664	-6.808568
0.500000	-0.008212	-9.672171	-95.339983	30.710811	-95.339983	30.710811	-0.005634	-7.562197
0.550000	-0.009621	-10.633782	-95.513554	32.817846	-95.513554	32.817846	-0.006660	-8.315045
0.600000	-0.011069	-11.594146	-95.770922	34.906745	-95.770922	34.906745	-0.007734	-9.067086
0.650000	-0.012543	-12.553260	-96.130841	37.059088	-96.130841	37.059088	-0.008844	-9.818298
0.700000	-0.014033	-13.511128	-96.616795	39.393414	-96.616795	39.393414	-0.009985	-10.568670
0.750000	-0.015529	-14.467760	-97.259252	42.091267	-97.259252	42.091267	-0.011147	-11.318196
0.800000	-0.017022	-15.423172	-98.098577	45.450309	-98.098577	45.450309	-0.012325	-12.066871
0.850000	-0.018507	-16.377377	-99.187447	49.998304	-99.187447	49.998304	-0.013511	-12.814698
0.900000	-0.019979	-17.330390	-100.585342	56.747676	-100.585342	56.747676	-0.014702	-13.561680
0.950000	-0.021434	-18.282226	-102.307115	67.714080	-102.307115	67.714080	-0.015891	-14.307823
1.000000	-0.022870	-19.232895	-104.079842	86.241190	-104.079842	86.241190	-0.017077	-15.053133
1.050000	-0.024286	-20.182405	-104.811476	114.106038	-104.811476	114.106038	-0.018255	-15.797616
1.100000	-0.025681	-21.130762	-103.276218	143.460762	-103.276218	143.460762	-0.019423	-16.541279
1.150000	-0.027055	-22.077969	-100.453605	162.964567	-100.453605	162.964567	-0.020580	-17.284127
1.200000	-0.028408	-23.024024	-97.645105	173.854032	-97.645105	173.854032	-0.021724	-18.026165
1.250000	-0.029741	-23.968923	-95.170600	-179.891629	-95.170600	-179.891629	-0.022854	-18.767397
1.300000	-0.031054	-24.912609	-93.004775	-176.160155	-93.004775	-176.160155	-0.023969	-19.507791
1.350000	-0.032349	-25.855123	-91.097985	-173.799748	-91.097985	-173.799748	-0.025070	-20.247381
1.400000	-0.033628	-26.796453	-89.393522	-172.307872	-89.393522	-172.307872	-0.026157	-20.986167
1.450000	-0.034892	-27.736585	-87.849421	-171.400431	-87.849421	-171.400431	-0.027229	-21.724147
1.500000	-0.036142	-28.675503	-86.434936	-170.906734	-86.434936	-170.906734	-0.028288	-22.461317
1.550000	-0.037381	-29.613191	-85.127250	-170.718578	-85.127250	-170.718578	-0.029334	-23.197673
1.600000	-0.038609	-30.549631	-83.909114	-170.764140	-83.909114	-170.764140	-0.030368	-23.933209
1.650000	-0.039827	-31.484804	-82.767230	-170.993820	-82.767230	-170.993820	-0.031390	-24.667916
1.700000	-0.041038	-32.418690	-81.691154	-171.372186	-81.691154	-171.372186	-0.032403	-25.401788
1.750000	-0.042243	-33.351268	-80.672548	-171.873172	-80.672548	-171.873172	-0.033405	-26.134814
1.800000	-0.043442	-34.282518	-79.704647	-172.477107	-79.704647	-172.477107	-0.034399	-26.866985
1.850000	-0.044637	-35.212418	-78.781890	-173.168811	-78.781890	-173.168811	-0.035385	-27.598290
1.900000	-0.045830	-36.140949	-77.899650	-173.936334	-77.899650	-173.936334	-0.036365	-28.328716
1.950000	-0.047020	-37.068087	-77.054030	-174.770107	-77.054030	-174.770107	-0.037339	-29.058252
2.000000	-0.048210	-37.993813	-76.241722	-175.662340	-76.241722	-175.662340	-0.038307	-29.786885
2.050000	-0.049400	-38.918106	-75.459886	-176.606609	-75.459886	-176.606609	-0.039273	-30.514602
2.100000	-0.050590	-39.840944	-74.706067	-177.597543	-74.706067	-177.597543	-0.040235	-31.241389
2.150000	-0.051783	-40.762309	-73.978128	-178.630601	-73.978128	-178.630601	-0.041195	-31.967233
2.200000	-0.052978	-41.682179	-73.274195	-179.701905	-73.274195	-179.701905	-0.042153	-32.692118
2.250000	-0.054176	-42.600536	-72.592614	179.191891	-72.592614	179.191891	-0.043112	-33.416032
2.300000	-0.055378	-43.517362	-71.931917	178.053701	-71.931917	178.053701	-0.044070	-34.138959
2.350000	-0.056585	-44.432637	-71.290798	176.886081	-71.290798	176.886081	-0.045030	-34.860885
2.400000	-0.057797	-45.346345	-70.668082	175.691291	-70.668082	175.691291	-0.045991	-35.581795
2.450000	-0.059015	-46.258469	-70.062715	174.471346	-70.062715	174.471346	-0.046954	-36.301675
2.500000	-0.060239	-47.168992	-69.473742	173.228052	-69.473742	173.228052	-0.047921	-37.020510
2.550000	-0.061470	-48.077829	-68.899334	171.962162	-68.899334	171.962162	-0.048892	-37.738240
2.600000	-0.062709	-48.985034	-68.339763	170.676153	-68.339763	170.676153	-0.049867	-38.454895
2.650000	-0.063955	-49.890593	-67.794300	169.371359	-67.794300	169.371359	-0.050846	-39.170461
2.700000	-0.065209	-50.794494	-67.262274	168.049005	-67.262274	168.049005	-0.051832	-39.884923
2.750000	-0.066472	-51.696725	-66.743070	166.710221	-66.743070	166.710221	-0.052823	-40.598270
2.800000	-0.067744	-52.597273	-66.236122	165.356057	-66.236122	165.356057	-0.053820	-41.310486
2.850000	-0.069025	-53.496128	-65.740903	163.987487	-65.740903	163.987487	-0.054824	-42.021558
2.900000	-0.070316	-54.393281	-65.256927	162.605421	-65.256927	162.605421	-0.055836	-42.731473
2.950000	-0.071618	-55.288721	-64.783741	161.210714	-64.783741	161.210714	-0.056855	-43.440219
3.000000	-0.072929	-56.182442	-64.320923	159.804166	-64.320923	159.804166	-0.057882	-44.147783
3.050000	-0.074252	-57.074436	-63.868078	158.386534	-63.868078	158.386534	-0.058917	-44.854152
3.100000	-0.075586	-57.964696	-63.424835	156.958533	-63.424835	156.958533	-0.059962	-45.559315
3.150000	-0.076932	-58.853216	-62.990849	155.520839	-62.990849	155.520839	-0.061015	-46.263260
3.200000	-0.078289	-59.739992	-62.565791	154.074094	-62.565791	154.074094	-0.062078	-46.965976
3.250000	-0.079659	-60.625019	-62.149354	152.618908	-62.149354	152.618908	-0.063151	-47.667451
3.300000	-0.081042	-61.508294	-61.741246	151.155863	-61.741246	151.155863	-0.064233	-48.367676
3.350000	-0.082438	-62.389815	-61.341190	149.685511	-61.341190	149.685511	-0.065326	-49.066639
3.400000	-0.083847	-63.269579	-60.948926	148.208380	-60.948926	148.208380	-0.066430	-49.764332
3.450000	-0.085270	-64.147586	-60.564203	146.724975	-60.564203	146.724975	-0.067544	-50.460744
3.500000	-0.086708	-65.023836	-60.186785	145.235776	-60.186785	145.235776	-0.068670	-51.155867
3.550000	-0.088160	-65.898330	-59.816444	143.741243	-59.816444	143.741243	-0.069807	-51.849692
3.600000	-0.089627	-66.771068	-59.452966	142.241814	-59.452966	142.241814	-0.070956	-52.542209
3.650000	-0.091110	-67.642053	-59.096142	140.737908	-59.096142	140.737908	-0.072117	-53.233413
3.700000	-0.092608	-68.511289	-58.745774	139.229925	-58.745774	139.229925	-0.073290	-53.923294
3.750000	-0.094123	-69.378778	-58.401672	137.718246	-58.401672	137.718246	-0.074476	-54.611846
3.800000	-0.095655	-70.244450	-58.063347	136.203105	-58.063347	136.203105	-0.075675	-55.299003
3.850000	-0.097205	-71.108386	-57.730952	134.685006	-57.730952	134.685006	-0.076886	-55.984818
3.900000	-0.098772	-71.970593	-57.404315	133.164276	-57.404315	133.164276	-0.078112	-56.669284
3.950000	-0.100357	-72.831076	-57.083271	131.641224	-57.083271	131.641224	-0.079350	-57.352395
4.000000	-0.101961	-73.689844	-56.767660	130.116144	-56.767660	130.116144	-0.080603	-58.034147
4.050000	-0.103584	-74.546904	-56.457328	128.589313	-56.457328	128.589313	-0.081869	-58.714535
4.100000	-0.105226	-75.402266	-56.152125	127.060993	-56.152125	127.060993	-0.083150	-59.393555
4.150000	-0.106889	-76.255939	-55.851908	125.531431	-55.851908	125.531431	-0.084446	-60.071202
4.200000	-0.108572	-77.107934	-55.556536	124.000859	-55.556536	124.000859	-0.085756	-60.747475
4.250000	-0.110276	-77.958261	-55.265876	122.469493	-55.265876	122.469493	-0.087082	-61.422368
4.300000	-0.112002	-78.806933	-54.979795	120.937538	-54.979795	120.937538	-0.088423	-62.095880
4.350000	-0.113750	-79.653961	-54.698167	119.405182	-54.698167	119.405182	-0.089780	-62.768009
4.400000	-0.115520	-80.499358	-54.420869	117.872599	-54.420869	117.872599	-0.091153	-63.438753
4.450000	-0.117314	-81.343138	-54.147781	116.339952	-54.147781	116.339952	-0.092543	-64.108111
4.500000	-0.119131	-82.185316	-53.878789	114.807389	-53.878789	114.807389	-0.093949	-64.776081
4.550000	-0.120973	-83.025906	-53.613780	113.275046	-53.613780	113.275046	-0.095373	-65.442662
4.600000	-0.122839	-83.864923	-53.352645	111.743047	-53.352645	111.743047	-0.096814	-66.107856
4.650000	-0.124731	-84.702384	-53.095279	110.211504	-53.095279	110.211504	-0.098273	-66.771662
4.700000	-0.126649	-85.538306	-52.841580	108.680516	-52.841580	108.680516	-0.099751	-67.434080
4.750000	-0.128593	-86.372706	-52.591449	107.150173	-52.591449	107.150173	-0.101247	-68.095113
4.800000	-0.130565	-87.205602	-52.344789	105.620552	-52.344789	105.620552	-0.102762	-68.754760
4.850000	-0.132564	-88.037012	-52.101509	104.091720	-52.101509	104.091720	-0.104296	-69.413024
4.900000	-0.134591	-88.866956	-51.861518	102.563737	-51.861518	102.563737	-0.105851	-70.069908
4.950000	-0.136647	-89.695454	-51.624729	101.036648	-51.624729	101.036648	-0.107425	-70.725414
5.000000	-0.138733	-90.522525	-51.391058	99.510494	-51.391058	99.510494	-0.109021	-71.379544
5.050000	-0.140849	-91.348131	-51.160289	97.985347	-51.160289	97.985347	-0.110639	-72.032244
5.100000	-0.142997	-92.172355	-50.932484	96.461188	-50.932484	96.461188	-0.112278	-72.683575
5.150000	-0.145175	-92.995219	-50.707567	94.938029	-50.707567	94.938029	-0.113940	-73.333544
5.200000	-0.147386	-93.816747	-50.485464	93.415877	-50.485464	93.415877	-0.115624	-73.982153
5.250000	-0.149628	-94.636961	-50.266103	91.894730	-50.266103	91.894730	-0.117332	-74.629409
5.300000	-0.151904	-95.455885	-50.049418	90.374581	-50.049418	90.374581	-0.119063	-75.275316
5.350000	-0.154213	-96.273543	-49.835341	88.855417	-49.835341	88.855417	-0.120819	-75.919880
5.400000	-0.156556	-97.089962	-49.623808	87.337220	-49.623808	87.337220	-0.122600	-76.563107
5.450000	-0.158945	-97.904755	-49.413874	85.820282	-49.413874	85.820282	-0.124415	-77.204543
5.500000	-0.161354	-98.718924	-49.207597	84.303826	-49.207597	84.303826	-0.126243	-77.845288
5.550000	-0.163805	-99.531692	-49.003144	82.788428	-49.003144	82.788428	-0.128104	-78.484433
5.600000	-0.166288	-100.343459	-48.801327	81.273787	-48.801327	81.273787	-0.129988	-79.122436
5.650000	-0.168810	-101.154086	-48.601668	79.759970	-48.601668	79.759970	-0.131901	-79.759084
5.700000	-0.171370	-101.963573	-48.404125	78.246978	-48.404125	78.246978	-0.133843	-80.394377
5.750000	-0.173964	-102.772163	-48.209044	76.734595	-48.209044	76.734595	-0.135811	-81.028557
5.800000	-0.176603	-103.579496	-48.015605	75.223065	-48.015605	75.223065	-0.137813	-81.661178
5.850000	-0.179270	-104.386155	-47.824905	73.711955	-47.824905	73.711955	-0.139837	-82.292921
5.900000	-0.181992	-105.191466	-47.635417	72.201688	-47.635417	72.201688	-0.141903	-82.922908
5.950000	-0.184734	-105.996306	-47.448920	70.691686	-47.448920	70.691686	-0.143985	-83.552247
6.000000	-0.187539	-106.799733	-47.263246	69.182479	-47.263246	69.182479	-0.146116	-84.179642
6.050000	-0.190359	-107.602869	-47.080788	67.673416	-47.080788	67.673416	-0.148259	-84.806612
6.100000	-0.193250	-108.404553	-46.898806	66.165071	-46.898806	66.165071	-0.150458	-85.431457
6.150000	-0.196149	-109.206104	-46.720240	64.656782	-46.720240	64.656782	-0.152663	-86.056094
6.200000	-0.199127	-110.006194	-46.541844	63.149112	-46.541844	63.149112	-0.154932	-86.678436
6.250000	-0.202107	-110.806283	-46.367038	61.641442	-46.367038	61.641442	-0.157201	-87.300779
6.300000	-0.205174	-111.604933	-46.192136	60.134283	-46.192136	60.134283	-0.159543	-87.920665
6.350000	-0.208243	-112.403582	-46.020685	58.627123	-46.020685	58.627123	-0.161884	-88.540551
6.400000	-0.211395	-113.201056	-45.849482	57.120305	-45.849482	57.120305	-0.164294	-89.158231
6.450000	-0.214555	-113.998424	-45.681315	55.613518	-45.681315	55.613518	-0.166710	-89.775710
6.500000	-0.217792	-114.794862	-45.513712	54.106955	-45.513712	54.106955	-0.169190	-90.391225
6.550000	-0.221045	-115.591114	-45.348766	52.600437	-45.348766	52.600437	-0.171682	-91.006347
6.600000	-0.224368	-116.386658	-45.184674	51.094075	-45.184674	51.094075	-0.174233	-91.619740
6.650000	-0.227715	-117.181966	-45.022900	49.587764	-45.022900	49.587764	-0.176803	-92.232555
6.700000	-0.231126	-117.976762	-44.862242	48.081581	-44.862242	48.081581	-0.179426	-92.843867
6.750000	-0.234569	-118.771303	-44.703599	46.575463	-44.703599	46.575463	-0.182076	-93.454427
6.800000	-0.238068	-119.565504	-44.546306	45.069478	-44.546306	45.069478	-0.184773	-94.063700
6.850000	-0.241608	-120.359462	-44.390763	43.563589	-44.390763	43.563589	-0.187503	-94.672055
6.900000	-0.245198	-121.153224	-44.236774	42.057862	-44.236774	42.057862	-0.190274	-95.279333
6.950000	-0.248836	-121.946790	-44.084307	40.552296	-44.084307	40.552296	-0.193086	-95.885533
7.000000	-0.252516	-122.740275	-43.933568	39.046930	-43.933568	39.046930	-0.195933	-96.490855
7.050000	-0.256254	-123.533646	-43.784160	37.541843	-43.784160	37.541843	-0.198827	-97.094949
7.100000	-0.260026	-124.327022	-43.636624	36.036988	-43.636624	36.036988	-0.201749	-97.698356
7.150000	-0.263864	-125.120404	-43.490262	34.532598	-43.490262	34.532598	-0.204725	-98.300390
7.200000	-0.267728	-125.913842	-43.345884	33.028452	-43.345884	33.028452	-0.207723	-98.901920
7.250000	-0.271668	-126.707447	-43.202561	31.525042	-43.202561	31.525042	-0.210782	-99.501938
7.300000	-0.275625	-127.501126	-43.061302	30.021854	-43.061302	30.021854	-0.213855	-100.101627
7.350000	-0.279667	-128.295173	-42.921009	28.519774	-42.921009	28.519774	-0.216997	-100.699671
7.400000	-0.283719	-129.089276	-42.782832	27.017840	-42.782832	27.017840	-0.220146	-101.297553
7.450000	-0.287864	-129.883994	-42.645564	25.517508	-42.645564	25.517508	-0.223369	-101.893659
7.500000	-0.292011	-130.678712	-42.510432	24.017175	-42.510432	24.017175	-0.226594	-102.489764
7.550000	-0.296260	-131.474336	-42.376182	22.519071	-42.376182	22.519071	-0.229898	-103.083965
7.600000	-0.300512	-132.269960	-42.243976	21.020967	-42.243976	21.020967	-0.233204	-103.678166
7.650000	-0.304857	-133.066639	-42.112819	19.525405	-42.112819	19.525405	-0.236583	-104.270645
7.700000	-0.309213	-133.863414	-41.983529	18.030074	-41.983529	18.030074	-0.239970	-104.862968
7.750000	-0.313655	-134.661360	-41.855424	16.537557	-41.855424	16.537557	-0.243422	-105.453744
7.800000	-0.318117	-135.459539	-41.729040	15.045603	-41.729040	15.045603	-0.246889	-106.044210
7.850000	-0.322657	-136.258969	-41.603942	13.556675	-41.603942	13.556675	-0.250414	-106.633296
7.900000	-0.327225	-137.058815	-41.480446	12.068756	-41.480446	12.068756	-0.253960	-107.221923
7.950000	-0.331863	-137.859954	-41.358307	10.584000	-41.358307	10.584000	-0.257558	-107.809328
8.000000	-0.336539	-138.661740	-41.237676	9.100824	-41.237676	9.100824	-0.261182	-108.396122
8.050000	-0.341276	-139.464822	-41.118443	7.620853	-41.118443	7.620853	-0.264853	-108.981850
8.100000	-0.346060	-140.268829	-41.000644	6.143170	-41.000644	6.143170	-0.268556	-109.566816
8.150000	-0.350897	-141.074093	-40.884259	4.668628	-40.884259	4.668628	-0.272299	-110.150865
8.200000	-0.355790	-141.880614	-40.769253	3.197225	-40.769253	3.197225	-0.276081	-110.733997
8.250000	-0.360728	-142.688308	-40.655654	1.728778	-40.655654	1.728778	-0.279897	-111.316361
8.300000	-0.365730	-143.497647	-40.543389	0.264467	-40.543389	0.264467	-0.283759	-111.897649
8.350000	-0.370771	-144.308028	-40.432506	-1.197201	-40.432506	-1.197201	-0.287649	-112.478317
8.400000	-0.375884	-145.120498	-40.322921	-2.653587	-40.322921	-2.653587	-0.291592	-113.057743
8.450000	-0.381027	-145.933831	-40.214679	-4.107781	-40.214679	-4.107781	-0.295557	-113.636699
8.500000	-0.386253	-146.749758	-40.107702	-5.555400	-40.107702	-5.555400	-0.299584	-114.214240
8.550000	-0.391499	-147.566317	-40.002019	-7.001417	-40.002019	-7.001417	-0.303626	-114.791463
8.600000	-0.396839	-148.386039	-39.897566	-8.439426	-39.897566	-8.439426	-0.307739	-115.367091
8.650000	-0.402190	-149.206106	-39.794353	-9.876565	-39.794353	-9.876565	-0.311861	-115.942557
8.700000	-0.407645	-150.029973	-39.692329	-11.304131	-39.692329	-11.304131	-0.316065	-116.516238
8.750000	-0.413103	-150.853839	-39.591490	-12.731696	-39.591490	-12.731696	-0.320270	-117.089919
8.800000	-0.418675	-151.682214	-39.491789	-14.147998	-39.491789	-14.147998	-0.324570	-117.661616
8.850000	-0.424250	-152.510589	-39.393219	-15.564301	-39.393219	-15.564301	-0.328871	-118.233313
8.900000	-0.429932	-153.343442	-39.295725	-16.969553	-39.295725	-16.969553	-0.333264	-118.803154
8.950000	-0.435627	-154.176702	-39.199310	-18.373801	-39.199310	-18.373801	-0.337668	-119.372827
9.000000	-0.441420	-155.014357	-39.103898	-19.767369	-39.103898	-19.767369	-0.342161	-119.940778
9.050000	-0.447236	-155.852892	-39.009513	-21.158801	-39.009513	-21.158801	-0.346674	-120.508385
9.100000	-0.453143	-156.695686	-38.916055	-22.540082	-38.916055	-22.540082	-0.351274	-121.074411
9.150000	-0.459083	-157.539900	-38.823563	-23.917979	-38.823563	-23.917979	-0.355904	-121.639909
9.200000	-0.465106	-158.388180	-38.731924	-25.286403	-38.731924	-25.286403	-0.360618	-122.203973
9.250000	-0.471173	-159.238493	-38.641180	-26.650090	-38.641180	-26.650090	-0.365375	-122.767319
9.300000	-0.477316	-160.092617	-38.551219	-28.005126	-38.551219	-28.005126	-0.370212	-123.329387
9.350000	-0.483513	-160.949463	-38.462069	-29.353982	-38.462069	-29.353982	-0.375106	-123.890540
9.400000	-0.489777	-161.809801	-38.373642	-30.695138	-38.373642	-30.695138	-0.380075	-124.450577
9.450000	-0.496108	-162.673631	-38.285923	-32.028596	-38.285923	-32.028596	-0.385117	-125.009497
9.500000	-0.502497	-163.540566	-38.198880	-33.355426	-38.198880	-33.355426	-0.390227	-125.567471
9.550000	-0.508965	-164.411847	-38.112421	-34.672977	-38.112421	-34.672977	-0.395429	-126.124121
9.600000	-0.515472	-165.285090	-38.026668	-35.986458	-38.026668	-35.986458	-0.400676	-126.680195
9.650000	-0.522069	-166.163453	-37.941363	-37.289382	-37.941363	-37.289382	-0.406033	-127.234781
9.700000	-0.528735	-167.045767	-37.856554	-38.584352	-37.856554	-38.584352	-0.411476	-127.788252
9.750000	-0.535473	-167.932149	-37.772199	-39.871284	-37.772199	-39.871284	-0.417009	-128.340602
9.800000	-0.542283	-168.822718	-37.688255	-41.150103	-37.688255	-41.150103	-0.422634	-128.891823
9.850000	-0.549167	-169.717592	-37.604676	-42.420741	-37.604676	-42.420741	-0.428355	-129.441911
9.900000	-0.556126	-170.616896	-37.521419	-43.683137	-37.521419	-43.683137	-0.434174	-129.990858
9.950000	-0.563161	-171.520751	-37.438440	-44.937237	-37.438440	-44.937237	-0.440094	-130.538661
10.000000	-0.570273	-172.429286	-37.355694	-46.182992	-37.355694	-46.182992	-0.446120	-131.085312
