! freq	dB(S11)	phase(S11)	dB(S12)	phase(S12)	
!     	dB(S21)	phase(S21)	dB(S22)	phase(S22)	
!S-par simulation data
#  GHz  S  DB  R 50
0.000000	-0.000000	0.000000	-325.011946	180.000000	-325.011946	180.000000	-0.000000	-0.000000
0.050000	-0.006844	-2.885380	-81.367237	88.163398	-81.367237	88.163398	-0.005974	-2.731181
0.100000	-0.012478	-5.712125	-75.297866	85.060453	-75.297866	85.060453	-0.011524	-5.409767
0.150000	-0.015334	-8.532032	-71.790182	82.094380	-71.790182	82.094380	-0.014461	-8.080869
0.200000	-0.017409	-11.350927	-69.329520	79.219843	-69.329520	79.219843	-0.016541	-10.752451
0.250000	-0.019379	-14.166932	-67.445719	76.400386	-67.445719	76.400386	-0.018459	-13.423879
0.300000	-0.021461	-16.978091	-65.930178	73.621705	-65.930178	73.621705	-0.020451	-16.093974
0.350000	-0.023730	-19.782433	-64.673730	70.880671	-64.673730	70.880671	-0.022611	-18.761654
0.400000	-0.026195	-22.578864	-63.608494	68.174931	-63.608494	68.174931	-0.024956	-21.426268
0.450000	-0.028847	-25.366197	-62.691902	65.505736	-62.691902	65.505736	-0.027489	-24.087219
0.500000	-0.031678	-28.142847	-61.896445	62.877162	-61.896445	62.877162	-0.030207	-26.743786
0.550000	-0.034659	-30.908124	-61.200077	60.290815	-61.200077	60.290815	-0.033089	-29.395645
0.600000	-0.037765	-33.661268	-60.586981	57.749309	-60.586981	57.749309	-0.036115	-32.042467
0.650000	-0.040973	-36.401065	-60.046371	55.257473	-60.046371	55.257473	-0.039269	-34.683751
0.700000	-0.044259	-39.126713	-59.569005	52.819098	-59.569005	52.819098	-0.042530	-37.319179
0.750000	-0.047596	-41.837919	-59.146602	50.436462	-59.146602	50.436462	-0.045875	-39.948653
0.800000	-0.050965	-44.533879	-58.773589	48.114204	-58.773589	48.114204	-0.049289	-42.571871
0.850000	-0.054345	-47.213477	-58.445993	45.858773	-58.445993	45.858773	-0.052753	-45.188414
0.900000	-0.057719	-49.876920	-58.158267	43.671657	-58.158267	43.671657	-0.056251	-47.798407
0.950000	-0.061071	-52.523768	-57.906890	41.557326	-57.906890	41.557326	-0.059767	-50.401713
1.000000	-0.064385	-55.152705	-57.690198	39.524909	-57.690198	39.524909	-0.063290	-52.997854
1.050000	-0.067653	-57.764212	-57.504112	37.575875	-57.504112	37.575875	-0.066806	-55.587072
1.100000	-0.070865	-60.358084	-57.346092	35.715180	-57.346092	35.715180	-0.070308	-58.169336
1.150000	-0.074012	-62.933414	-57.214744	33.952119	-57.214744	33.952119	-0.073785	-60.744346
1.200000	-0.077088	-65.490269	-57.107542	32.291634	-57.107542	32.291634	-0.077230	-63.312186
1.250000	-0.080091	-68.028884	-57.022002	30.737998	-57.022002	30.737998	-0.080639	-65.873007
1.300000	-0.083016	-70.548781	-56.956526	29.300202	-56.956526	29.300202	-0.084006	-68.426686
1.350000	-0.085861	-73.049547	-56.909357	27.987790	-56.909357	27.987790	-0.087328	-70.973134
1.400000	-0.088629	-75.531855	-56.877747	26.803400	-56.877747	26.803400	-0.090603	-73.512673
1.450000	-0.091318	-77.995652	-56.859611	25.754509	-56.859611	25.754509	-0.093830	-76.045351
1.500000	-0.093927	-80.440019	-56.853132	24.855785	-56.853132	24.855785	-0.097005	-78.570909
1.550000	-0.096462	-82.866049	-56.855121	24.106124	-56.855121	24.106124	-0.100131	-81.089827
1.600000	-0.098925	-85.273846	-56.862896	23.511178	-56.862896	23.511178	-0.103209	-83.602223
1.650000	-0.101316	-87.662745	-56.873532	23.082645	-56.873532	23.082645	-0.106237	-86.107954
1.700000	-0.103641	-90.033404	-56.883539	22.819119	-56.883539	22.819119	-0.109219	-88.607349
1.750000	-0.105903	-92.386313	-56.889445	22.718192	-56.889445	22.718192	-0.112156	-91.100678
1.800000	-0.108106	-94.721434	-56.887464	22.779503	-56.887464	22.779503	-0.115051	-93.588034
1.850000	-0.110254	-97.039017	-56.873689	22.996535	-56.873689	22.996535	-0.117905	-96.069618
1.900000	-0.112350	-99.339152	-56.843976	23.359835	-56.843976	23.359835	-0.120721	-98.545584
1.950000	-0.114398	-101.622148	-56.794410	23.853116	-56.794410	23.853116	-0.123502	-101.016169
2.000000	-0.116404	-103.888513	-56.721708	24.454069	-56.721708	24.454069	-0.126250	-103.481674
2.050000	-0.118371	-106.138586	-56.622941	25.137477	-56.622941	25.137477	-0.128970	-105.942354
2.100000	-0.120303	-108.372727	-56.495889	25.874391	-56.495889	25.874391	-0.131663	-108.398475
2.150000	-0.122205	-110.591311	-56.339186	26.633276	-56.339186	26.633276	-0.134333	-110.850315
2.200000	-0.124081	-112.794730	-56.152412	27.381461	-56.152412	27.381461	-0.136983	-113.298163
2.250000	-0.125934	-114.983393	-55.936109	28.086722	-55.936109	28.086722	-0.139616	-115.742321
2.300000	-0.127768	-117.157722	-55.691715	28.718808	-55.691715	28.718808	-0.142234	-118.183098
2.350000	-0.129587	-119.318151	-55.421440	29.250745	-55.421440	29.250745	-0.144841	-120.620815
2.400000	-0.131394	-121.465127	-55.128090	29.659763	-55.128090	29.659763	-0.147439	-123.055802
2.450000	-0.133193	-123.599111	-54.814867	29.927822	-54.814867	29.927822	-0.150032	-125.488396
2.500000	-0.134988	-125.720570	-54.485179	30.041708	-54.485179	30.041708	-0.152621	-127.918943
2.550000	-0.136780	-127.829733	-54.141951	29.989156	-54.141951	29.989156	-0.155210	-130.347769
2.600000	-0.138574	-129.927361	-53.789134	29.769269	-53.789134	29.769269	-0.157801	-132.775279
2.650000	-0.140373	-132.013951	-53.429842	29.381212	-53.429842	29.381212	-0.160397	-135.201839
2.700000	-0.142179	-134.090008	-53.066909	28.826890	-53.066909	28.826890	-0.162999	-137.627822
2.750000	-0.143996	-136.156044	-52.702856	28.110292	-52.702856	28.110292	-0.165610	-140.053604
2.800000	-0.145825	-138.212576	-52.339883	27.236904	-52.339883	27.236904	-0.168231	-142.479566
2.850000	-0.147669	-140.260131	-51.979881	26.213209	-51.979881	26.213209	-0.170866	-144.906092
2.900000	-0.149531	-142.299237	-51.624447	25.046270	-51.624447	25.046270	-0.173515	-147.333569
2.950000	-0.151413	-144.330432	-51.274918	23.743413	-51.274918	23.743413	-0.176181	-149.762387
3.000000	-0.153318	-146.354256	-50.932395	22.311975	-50.932395	22.311975	-0.178865	-152.192933
3.050000	-0.155246	-148.371256	-50.597778	20.759131	-50.597778	20.759131	-0.181567	-154.625599
3.100000	-0.157202	-150.381982	-50.271789	19.091764	-50.271789	19.091764	-0.184290	-157.060775
3.150000	-0.159186	-152.386934	-49.954987	17.315276	-49.954987	17.315276	-0.187035	-159.498884
3.200000	-0.161201	-154.386690	-49.647857	15.435943	-49.647857	15.435943	-0.189803	-161.940327
3.250000	-0.163248	-156.381878	-49.350766	13.460533	-49.350766	13.460533	-0.192595	-164.385454
3.300000	-0.165329	-158.373064	-49.063965	11.394179	-49.063965	11.394179	-0.195410	-166.834646
3.350000	-0.167446	-160.360823	-48.787633	9.241555	-48.787633	9.241555	-0.198251	-169.288276
3.400000	-0.169600	-162.345730	-48.521890	7.006881	-48.521890	7.006881	-0.201116	-171.746714
3.450000	-0.171793	-164.328366	-48.266806	4.693942	-48.266806	4.693942	-0.204007	-174.210322
3.500000	-0.174027	-166.309317	-48.022412	2.306102	-48.022412	2.306102	-0.206923	-176.679454
3.550000	-0.176303	-168.289171	-47.788702	-0.153677	-47.788702	-0.153677	-0.209864	-179.154457
3.600000	-0.178623	-170.268523	-47.565645	-2.682816	-47.565645	-2.682816	-0.212831	178.364333
3.650000	-0.180987	-172.247969	-47.353185	-5.279108	-47.353185	-5.279108	-0.215822	175.876590
3.700000	-0.183398	-174.228114	-47.151244	-7.940697	-47.151244	-7.940697	-0.218837	173.382000
3.750000	-0.185856	-176.209564	-46.959728	-10.666065	-46.959728	-10.666065	-0.221876	170.880262
3.800000	-0.188364	-178.192988	-46.778670	-13.455365	-46.778670	-13.455365	-0.224938	168.370918
3.850000	-0.190923	179.821025	-46.607813	-16.306360	-46.607813	-16.306360	-0.228021	165.853854
3.900000	-0.193534	177.831851	-46.447013	-19.218511	-46.447013	-19.218511	-0.231125	163.328814
3.950000	-0.196197	175.838862	-46.296112	-22.191577	-46.296112	-22.191577	-0.234248	160.795559
4.000000	-0.198915	173.841424	-46.154938	-25.225614	-46.154938	-25.225614	-0.237389	158.253869
4.050000	-0.201688	171.838896	-46.023303	-28.320971	-46.023303	-28.320971	-0.240546	155.703543
4.100000	-0.204519	169.830633	-45.900999	-31.478284	-45.900999	-31.478284	-0.243717	153.144403
4.150000	-0.207407	167.815981	-45.787802	-34.698470	-45.787802	-34.698470	-0.246901	150.576289
4.200000	-0.210355	165.794283	-45.683463	-37.982730	-45.683463	-37.982730	-0.250096	147.999066
4.250000	-0.213364	163.764872	-45.587710	-41.332542	-45.587710	-41.332542	-0.253299	145.412623
4.300000	-0.216436	161.727076	-45.500240	-44.749651	-45.500240	-44.749651	-0.256509	142.816873
4.350000	-0.219570	159.680216	-45.420717	-48.236069	-45.420717	-48.236069	-0.259723	140.211756
4.400000	-0.222771	157.623491	-45.348840	-51.794867	-45.348840	-51.794867	-0.262939	137.597134
4.450000	-0.226039	155.556182	-45.284177	-55.428641	-45.284177	-55.428641	-0.266155	134.973005
4.500000	-0.229375	153.477695	-45.226180	-59.139349	-45.226180	-59.139349	-0.269367	132.339493
4.550000	-0.232781	151.387319	-45.174318	-62.929918	-45.174318	-62.929918	-0.272575	129.696654
4.600000	-0.236259	149.284338	-45.127993	-66.803428	-45.127993	-66.803428	-0.275775	127.044573
4.650000	-0.239809	147.168026	-45.086537	-70.763066	-45.086537	-70.763066	-0.278965	124.383365
4.700000	-0.243435	145.037653	-45.049197	-74.812070	-45.049197	-74.812070	-0.282143	121.713177
4.750000	-0.247137	142.892477	-45.015134	-78.953649	-45.015134	-78.953649	-0.285306	119.034187
4.800000	-0.250918	140.731752	-44.983411	-83.190901	-44.983411	-83.190901	-0.288452	116.346606
4.850000	-0.254779	138.554724	-44.952988	-87.526699	-44.952988	-87.526699	-0.291579	113.650678
4.900000	-0.258724	136.360632	-44.922718	-91.963563	-44.922718	-91.963563	-0.294685	110.946677
4.950000	-0.262753	134.148708	-44.891343	-96.503514	-44.891343	-96.503514	-0.297768	108.234912
5.000000	-0.266870	131.918179	-44.857500	-101.147908	-44.857500	-101.147908	-0.300826	105.515720
5.050000	-0.271080	129.667825	-44.819599	-105.899524	-44.819599	-105.899524	-0.303857	102.789330
5.100000	-0.275382	127.397266	-44.776137	-110.755479	-44.776137	-110.755479	-0.306860	100.056306
5.150000	-0.279779	125.105713	-44.725489	-115.713912	-44.725489	-115.713912	-0.309835	97.317083
5.200000	-0.284276	122.792373	-44.665995	-120.771539	-44.665995	-120.771539	-0.312780	94.572123
5.250000	-0.288873	120.456453	-44.595991	-125.923506	-44.595991	-125.923506	-0.315694	91.821920
5.300000	-0.293576	118.097156	-44.513859	-131.163281	-44.513859	-131.163281	-0.318578	89.066989
5.350000	-0.298387	115.713686	-44.418074	-136.482614	-44.418074	-136.482614	-0.321432	86.307876
5.400000	-0.303310	113.305250	-44.307256	-141.871578	-44.307256	-141.871578	-0.324255	83.545147
5.450000	-0.308349	110.871055	-44.180231	-147.318689	-44.180231	-147.318689	-0.327049	80.779393
5.500000	-0.313507	108.410316	-44.036073	-152.811123	-44.036073	-152.811123	-0.329814	78.011223
5.550000	-0.318790	105.922252	-43.874152	-158.335021	-43.874152	-158.335021	-0.332552	75.241266
5.600000	-0.324200	103.406095	-43.694164	-163.875860	-43.694164	-163.875860	-0.335264	72.470166
5.650000	-0.329745	100.860762	-43.495900	-169.418732	-43.495900	-169.418732	-0.337953	69.698583
5.700000	-0.335428	98.285485	-43.279730	-174.948593	-43.279730	-174.948593	-0.340621	66.927211
5.750000	-0.341255	95.679852	-43.046614	179.548465	-43.046614	179.548465	-0.343271	64.156733
5.800000	-0.347228	93.043156	-42.797560	174.085301	-42.797560	174.085301	-0.345906	61.387835
5.850000	-0.353355	90.374717	-42.533819	168.673453	-42.533819	168.673453	-0.348529	58.621208
5.900000	-0.359641	87.673880	-42.256832	163.322931	-42.256832	163.322931	-0.351146	55.857539
5.950000	-0.366090	84.940025	-41.968180	158.042102	-41.968180	158.042102	-0.353759	53.097520
6.000000	-0.372709	82.172564	-41.669522	152.837655	-41.669522	152.837655	-0.356374	50.341833
6.050000	-0.379503	79.370951	-41.362547	147.714649	-41.362547	147.714649	-0.358995	47.591156
6.100000	-0.386479	76.534686	-41.048932	142.676617	-41.048932	142.676617	-0.361627	44.846159
6.150000	-0.393643	73.663316	-40.730305	137.725716	-40.730305	137.725716	-0.364277	42.107496
6.200000	-0.400999	70.756446	-40.408213	132.862902	-40.408213	132.862902	-0.366949	39.375809
6.250000	-0.408555	67.813738	-40.084106	128.088109	-40.084106	128.088109	-0.369649	36.651725
6.300000	-0.416321	64.834131	-39.759071	123.402300	-39.759071	123.402300	-0.372385	33.936039
6.350000	-0.424298	61.818208	-39.434628	118.801969	-39.434628	118.801969	-0.375162	31.229171
6.400000	-0.432491	58.765852	-39.111871	114.285038	-39.111871	114.285038	-0.377986	28.531679
6.450000	-0.440907	55.677024	-38.791773	109.849086	-38.791773	109.849086	-0.380865	25.844097
6.500000	-0.449549	52.551777	-38.475187	105.491463	-38.475187	105.491463	-0.383804	23.166931
6.550000	-0.458423	49.390253	-38.162860	101.209385	-38.162860	101.209385	-0.386810	20.500660
6.600000	-0.467533	46.192694	-37.855434	97.000021	-37.855434	97.000021	-0.389890	17.845729
6.650000	-0.476882	42.959442	-37.553455	92.860543	-37.553455	92.860543	-0.393051	15.202554
6.700000	-0.486474	39.690947	-37.257385	88.788184	-37.257385	88.788184	-0.396299	12.571517
6.750000	-0.496311	36.387768	-36.967604	84.780266	-36.967604	84.780266	-0.399642	9.952967
6.800000	-0.506394	33.050578	-36.684423	80.834223	-36.684423	80.834223	-0.403085	7.347216
6.850000	-0.516724	29.680165	-36.408090	76.947619	-36.408090	76.947619	-0.406636	4.754543
6.900000	-0.527304	26.277093	-36.138783	73.118749	-36.138783	73.118749	-0.410302	2.175335
6.950000	-0.538133	22.842424	-35.876660	69.345384	-35.876660	69.345384	-0.414090	-0.390197
7.000000	-0.549202	19.378053	-35.621830	65.624188	-35.621830	65.624188	-0.418004	-2.942221
7.050000	-0.560513	15.884584	-35.374335	61.954425	-35.374335	61.954425	-0.422052	-5.480311
7.100000	-0.572060	12.363640	-35.134197	58.333896	-35.134197	58.333896	-0.426239	-8.004488
7.150000	-0.583838	8.816706	-34.901406	54.760949	-34.901406	54.760949	-0.430572	-10.514700
7.200000	-0.595839	5.245310	-34.675926	51.234157	-34.675926	51.234157	-0.435056	-13.010892
7.250000	-0.608057	1.651043	-34.457709	47.752292	-34.457709	47.752292	-0.439699	-15.493012
7.300000	-0.620480	-1.964113	-34.246666	44.313612	-34.246666	44.313612	-0.444504	-17.961232
7.350000	-0.633099	-5.598290	-34.042697	40.916829	-34.042697	40.916829	-0.449477	-20.415651
7.400000	-0.645902	-9.249548	-33.845693	37.560717	-33.845693	37.560717	-0.454624	-22.856401
7.450000	-0.658876	-12.915884	-33.655533	34.244110	-33.655533	34.244110	-0.459948	-25.283651
7.500000	-0.672008	-16.595241	-33.472086	30.965890	-33.472086	30.965890	-0.465456	-27.697607
7.550000	-0.685283	-20.285615	-33.295248	27.725379	-33.295248	27.725379	-0.471155	-30.098370
7.600000	-0.698687	-23.984740	-33.124847	24.521122	-33.124847	24.521122	-0.477047	-32.486362
7.650000	-0.712201	-27.690472	-32.960739	21.352118	-32.960739	21.352118	-0.483136	-34.861893
7.700000	-0.725810	-31.400670	-32.802777	18.217393	-32.802777	18.217393	-0.489428	-37.225309
7.750000	-0.739499	-35.113208	-32.650903	15.116879	-32.650903	15.116879	-0.495932	-39.576681
7.800000	-0.753246	-38.825893	-32.504814	12.048032	-32.504814	12.048032	-0.502644	-41.916992
7.850000	-0.767036	-42.536705	-32.364435	9.010673	-32.364435	9.010673	-0.509571	-44.246432
7.900000	-0.780852	-46.243622	-32.229626	6.003916	-32.229626	6.003916	-0.516719	-46.565480
7.950000	-0.794675	-49.944680	-32.100250	3.026893	-32.100250	3.026893	-0.524091	-48.874651
8.000000	-0.808490	-53.637982	-31.976175	0.078756	-31.976175	0.078756	-0.531692	-51.174488
8.050000	-0.822278	-57.321809	-31.857245	-2.841546	-31.857245	-2.841546	-0.539524	-53.465636
8.100000	-0.836023	-60.994184	-31.743415	-5.734232	-31.743415	-5.734232	-0.547597	-55.748530
8.150000	-0.849709	-64.653530	-31.634541	-8.600332	-31.634541	-8.600332	-0.555913	-58.023896
8.200000	-0.863320	-68.298293	-31.530513	-11.440626	-31.530513	-11.440626	-0.564477	-60.292425
8.250000	-0.876842	-71.927124	-31.431210	-14.256003	-31.431210	-14.256003	-0.573293	-62.554870
8.300000	-0.890260	-75.538714	-31.336534	-17.047184	-31.336534	-17.047184	-0.582364	-64.811980
8.350000	-0.903563	-79.131866	-31.246395	-19.814862	-31.246395	-19.814862	-0.591696	-67.064536
8.400000	-0.916736	-82.705499	-31.160709	-22.559704	-31.160709	-22.559704	-0.601294	-69.313358
8.450000	-0.929769	-86.258586	-31.079410	-25.282290	-31.079410	-25.282290	-0.611164	-71.559293
8.500000	-0.942648	-89.790148	-31.002445	-27.983117	-31.002445	-27.983117	-0.621312	-73.803238
8.550000	-0.955366	-93.299616	-30.929721	-30.662941	-30.929721	-30.662941	-0.631743	-76.046146
8.600000	-0.967913	-96.786362	-30.861177	-33.322301	-30.861177	-33.322301	-0.642461	-78.288990
8.650000	-0.980277	-100.249608	-30.796801	-35.961491	-30.796801	-35.961491	-0.653477	-80.532807
8.700000	-0.992457	-103.689581	-30.736445	-38.581509	-30.736445	-38.581509	-0.664789	-82.778597
8.750000	-1.004441	-107.105580	-30.680124	-41.182464	-30.680124	-41.182464	-0.676408	-85.027478
8.800000	-1.016219	-110.496848	-30.627879	-43.764351	-30.627879	-43.764351	-0.688348	-87.280715
8.850000	-1.027787	-113.863775	-30.579595	-46.327937	-30.579595	-46.327937	-0.700610	-89.539438
8.900000	-1.039141	-117.206310	-30.535239	-48.873535	-30.535239	-48.873535	-0.713203	-91.804893
8.950000	-1.050275	-120.524482	-30.494785	-51.401416	-30.494785	-51.401416	-0.726134	-94.078382
9.000000	-1.061184	-123.818386	-30.458204	-53.911815	-30.458204	-53.911815	-0.739412	-96.361260
9.050000	-1.071863	-127.088185	-30.425474	-56.404925	-30.425474	-56.404925	-0.753048	-98.654941
9.100000	-1.082309	-130.334099	-30.396571	-58.880899	-30.396571	-58.880899	-0.767049	-100.960899
9.150000	-1.092515	-133.556404	-30.371475	-61.339854	-30.371475	-61.339854	-0.781428	-103.280673
9.200000	-1.102480	-136.755419	-30.350166	-63.781867	-30.350166	-63.781867	-0.796194	-105.615869
9.250000	-1.112199	-139.931508	-30.332622	-66.206980	-30.332622	-66.206980	-0.811358	-107.968163
9.300000	-1.121667	-143.085069	-30.318824	-68.615198	-30.318824	-68.615198	-0.826934	-110.339305
9.350000	-1.130883	-146.216530	-30.308750	-71.006495	-30.308750	-71.006495	-0.842934	-112.731123
9.400000	-1.139839	-149.326117	-30.302419	-73.380624	-30.302419	-73.380624	-0.859374	-115.145793
9.450000	-1.148531	-152.414323	-30.299805	-75.737492	-30.299805	-75.737492	-0.876270	-117.585381
9.500000	-1.156960	-155.481875	-30.300845	-78.077164	-30.300845	-78.077164	-0.893630	-120.051729
9.550000	-1.165122	-158.529278	-30.305509	-80.399496	-30.305509	-80.399496	-0.911471	-122.547019
9.600000	-1.173014	-161.557042	-30.313768	-82.704320	-30.313768	-82.704320	-0.929806	-125.073528
9.650000	-1.180632	-164.565682	-30.325589	-84.991447	-30.325589	-84.991447	-0.948652	-127.633634
9.700000	-1.187973	-167.555715	-30.340937	-87.260672	-30.340937	-87.260672	-0.968025	-130.229816
9.750000	-1.195035	-170.527651	-30.359772	-89.511774	-30.359772	-89.511774	-0.987940	-132.864661
9.800000	-1.201814	-173.481995	-30.382054	-91.744520	-30.382054	-91.744520	-1.008414	-135.540862
9.850000	-1.208306	-176.419244	-30.407737	-93.958668	-30.407737	-93.958668	-1.029463	-138.261222
9.900000	-1.214510	-179.339882	-30.436772	-96.153967	-30.436772	-96.153967	-1.051102	-141.028653
9.950000	-1.220422	177.755621	-30.469109	-98.330166	-30.469109	-98.330166	-1.073348	-143.846178
10.000000	-1.226040	174.866812	-30.504691	-100.487008	-30.504691	-100.487008	-1.096213	-146.716927
