! freq	dB(S11)	phase(S11)	dB(S12)	phase(S12)	
!     	dB(S21)	phase(S21)	dB(S22)	phase(S22)	
!S-par simulation data
#  GHz  S  DB  R 50
0.000000	-0.000000	0.000000	-334.446255	0.000000	-334.446255	0.000000	-0.000000	0.000000
0.050000	-0.005761	-0.736146	-95.247833	40.695585	-95.247833	40.695585	-0.026106	-3.909864
0.100000	-0.007500	-1.505504	-91.563683	57.489676	-91.563683	57.489676	-0.039237	-7.626127
0.150000	-0.008076	-2.270721	-88.703605	64.257765	-88.703605	64.257765	-0.043758	-11.343235
0.200000	-0.008455	-3.033711	-86.518983	67.138159	-86.518983	67.138159	-0.046154	-15.061185
0.250000	-0.008812	-3.795514	-84.798354	68.252999	-84.798354	68.252999	-0.047974	-18.771341
0.300000	-0.009196	-4.556535	-83.407041	68.449284	-83.407041	68.449284	-0.049672	-22.467555
0.350000	-0.009621	-5.316938	-82.262194	68.121921	-82.262194	68.121921	-0.051408	-26.144981
0.400000	-0.010093	-6.076791	-81.309947	67.486936	-81.309947	67.486936	-0.053242	-29.799821
0.450000	-0.010613	-6.836115	-80.514302	66.670172	-80.514302	66.670172	-0.055196	-33.428783
0.500000	-0.011180	-7.594906	-79.850528	65.753603	-79.850528	65.753603	-0.057271	-37.028884
0.550000	-0.011792	-8.353150	-79.301149	64.796604	-79.301149	64.796604	-0.059462	-40.597443
0.600000	-0.012447	-9.110824	-78.853631	63.846595	-78.853631	63.846595	-0.061758	-44.132048
0.650000	-0.013143	-9.867903	-78.499348	62.945866	-78.499348	62.945866	-0.064146	-47.630333
0.700000	-0.013877	-10.624360	-78.231832	62.135544	-78.231832	62.135544	-0.066609	-51.090358
0.750000	-0.014645	-11.380173	-78.046079	61.457836	-78.046079	61.457836	-0.069133	-54.510651
0.800000	-0.015445	-12.135319	-77.938872	60.960246	-77.938872	60.960246	-0.071701	-57.889774
0.850000	-0.016274	-12.889775	-77.907919	60.698440	-77.907919	60.698440	-0.074298	-61.226512
0.900000	-0.017129	-13.643517	-77.951361	60.739820	-77.951361	60.739820	-0.076909	-64.519863
0.950000	-0.018008	-14.396500	-78.069449	61.185076	-78.069449	61.185076	-0.079520	-67.767448
1.000000	-0.018906	-15.148751	-78.254139	62.111805	-78.254139	62.111805	-0.082119	-70.971570
1.050000	-0.019822	-15.900231	-78.501231	63.661650	-78.501231	63.661650	-0.084694	-74.130492
1.100000	-0.020753	-16.650922	-78.798864	65.992874	-78.798864	65.992874	-0.087233	-77.243967
1.150000	-0.021698	-17.400810	-79.125713	69.287142	-79.125713	69.287142	-0.089729	-80.311911
1.200000	-0.022654	-18.149878	-79.445754	73.727703	-79.445754	73.727703	-0.092173	-83.334383
1.250000	-0.023619	-18.898114	-79.703326	79.445335	-79.703326	79.445335	-0.094558	-86.311578
1.300000	-0.024591	-19.645486	-79.818523	86.442542	-79.818523	86.442542	-0.096877	-89.242846
1.350000	-0.025570	-20.391999	-79.712555	94.389217	-79.712555	94.389217	-0.099127	-92.129605
1.400000	-0.026552	-21.137641	-79.331093	102.696005	-79.331093	102.696005	-0.101304	-94.972387
1.450000	-0.027538	-21.882402	-78.673448	110.648866	-78.673448	110.648866	-0.103407	-97.771810
1.500000	-0.028525	-22.626270	-77.792130	117.664591	-77.792130	117.664591	-0.105433	-100.528566
1.550000	-0.029514	-23.369235	-76.765004	123.443794	-76.765004	123.443794	-0.107382	-103.243414
1.600000	-0.030504	-24.111286	-75.665501	127.951058	-75.665501	127.951058	-0.109255	-105.917169
1.650000	-0.031492	-24.852413	-74.548078	131.307932	-74.548078	131.307932	-0.111053	-108.550694
1.700000	-0.032481	-25.592606	-73.447272	133.694311	-73.447272	133.694311	-0.112776	-111.144889
1.750000	-0.033468	-26.331855	-72.382446	135.290902	-72.382446	135.290902	-0.114427	-113.700690
1.800000	-0.034453	-27.070150	-71.363042	136.255281	-71.363042	136.255281	-0.116009	-116.219055
1.850000	-0.035437	-27.807481	-70.392546	136.716319	-70.392546	136.716319	-0.117525	-118.700963
1.900000	-0.036419	-28.543827	-69.470597	136.772900	-69.470597	136.772900	-0.118977	-121.147031
1.950000	-0.037399	-29.279177	-68.595763	136.507417	-68.595763	136.507417	-0.120370	-123.558296
2.000000	-0.038378	-30.013533	-67.766017	135.986105	-67.766017	135.986105	-0.121706	-125.936147
2.050000	-0.039355	-30.746883	-66.978428	135.257656	-66.978428	135.257656	-0.122992	-128.281590
2.100000	-0.040331	-31.479217	-66.230024	134.360591	-66.230024	134.360591	-0.124230	-130.595627
2.150000	-0.041306	-32.210524	-65.517936	133.325589	-65.517936	133.325589	-0.125425	-132.879253
2.200000	-0.042280	-32.940795	-64.839464	132.177254	-64.839464	132.177254	-0.126582	-135.133455
2.250000	-0.043253	-33.670018	-64.192107	130.935459	-64.192107	130.935459	-0.127703	-137.359209
2.300000	-0.044227	-34.398183	-63.573571	129.616363	-63.573571	129.616363	-0.128794	-139.557476
2.350000	-0.045201	-35.125279	-62.981756	128.233189	-62.981756	128.233189	-0.129859	-141.729205
2.400000	-0.046176	-35.851294	-62.414751	126.796813	-62.414751	126.796813	-0.130901	-143.875327
2.450000	-0.047152	-36.576219	-61.870813	125.316231	-61.870813	125.316231	-0.131925	-145.996756
2.500000	-0.048130	-37.300043	-61.348356	123.798911	-61.348356	123.798911	-0.132934	-148.094389
2.550000	-0.049110	-38.022729	-60.845732	122.250535	-60.845732	122.250535	-0.133931	-150.168626
2.600000	-0.050093	-38.744292	-60.361860	120.677041	-60.361860	120.677041	-0.134922	-152.220841
2.650000	-0.051079	-39.464720	-59.895528	119.082739	-59.895528	119.082739	-0.135908	-154.251872
2.700000	-0.052069	-40.184002	-59.445628	117.471242	-59.445628	117.471242	-0.136893	-156.262537
2.750000	-0.053064	-40.902129	-59.011147	115.845589	-59.011147	115.845589	-0.137880	-158.253632
2.800000	-0.054063	-41.619089	-58.591157	114.208331	-58.591157	114.208331	-0.138872	-160.225936
2.850000	-0.055067	-42.334872	-58.184805	112.561606	-58.184805	112.561606	-0.139872	-162.180205
2.900000	-0.056077	-43.049467	-57.791309	110.907207	-57.791309	110.907207	-0.140881	-164.117177
2.950000	-0.057093	-43.762866	-57.409950	109.246629	-57.409950	109.246629	-0.141903	-166.037570
3.000000	-0.058116	-44.475056	-57.040064	107.581118	-57.040064	107.581118	-0.142939	-167.942082
3.050000	-0.059146	-45.186030	-56.681043	105.911704	-56.681043	105.911704	-0.143991	-169.831392
3.100000	-0.060184	-45.895776	-56.332324	104.239236	-56.332324	104.239236	-0.145061	-171.706160
3.150000	-0.061230	-46.604272	-55.993351	102.564387	-55.993351	102.564387	-0.146150	-173.566884
3.200000	-0.062285	-47.311509	-55.663654	100.887731	-55.663654	100.887731	-0.147261	-175.414208
3.250000	-0.063349	-48.017490	-55.342833	99.209733	-55.342833	99.209733	-0.148393	-177.248886
3.300000	-0.064423	-48.722207	-55.030482	97.530740	-55.030482	97.530740	-0.149549	-179.071506
3.350000	-0.065506	-49.425652	-54.726224	95.851018	-54.726224	95.851018	-0.150729	179.117363
3.400000	-0.066600	-50.127816	-54.429714	94.170767	-54.429714	94.170767	-0.151934	177.317168
3.450000	-0.067705	-50.828691	-54.140633	92.490133	-54.140633	92.490133	-0.153164	175.527371
3.500000	-0.068821	-51.528270	-53.858686	90.809214	-53.858686	90.809214	-0.154420	173.747451
3.550000	-0.069949	-52.226544	-53.583604	89.128074	-53.583604	89.128074	-0.155703	171.976903
3.600000	-0.071089	-52.923508	-53.315138	87.446748	-53.315138	87.446748	-0.157011	170.215237
3.650000	-0.072241	-53.619153	-53.053058	85.765250	-53.053058	85.765250	-0.158346	168.461975
3.700000	-0.073406	-54.313473	-52.797156	84.083577	-52.797156	84.083577	-0.159708	166.716657
3.750000	-0.074584	-55.006463	-52.547239	82.401717	-52.547239	82.401717	-0.161096	164.978835
3.800000	-0.075776	-55.698072	-52.303095	80.719647	-52.303095	80.719647	-0.162510	163.248293
3.850000	-0.076983	-56.388337	-52.064608	79.037356	-52.064608	79.037356	-0.163951	161.524363
3.900000	-0.078203	-57.077255	-51.831630	77.354832	-51.831630	77.354832	-0.165416	159.806640
3.950000	-0.079439	-57.764818	-51.604028	75.672071	-51.604028	75.672071	-0.166906	158.094729
4.000000	-0.080689	-58.451024	-51.381677	73.989080	-51.381677	73.989080	-0.168421	156.388247
4.050000	-0.081955	-59.135868	-51.164466	72.305880	-51.164466	72.305880	-0.169958	154.686826
4.100000	-0.083236	-59.819345	-50.952292	70.622509	-50.952292	70.622509	-0.171518	152.990106
4.150000	-0.084534	-60.501451	-50.745064	68.939022	-50.745064	68.939022	-0.173100	151.297742
4.200000	-0.085848	-61.182185	-50.542695	67.255498	-50.542695	67.255498	-0.174702	149.609397
4.250000	-0.087179	-61.861541	-50.345111	65.572036	-50.345111	65.572036	-0.176324	147.924746
4.300000	-0.088527	-62.539518	-50.152239	63.888759	-50.152239	63.888759	-0.177966	146.243477
4.350000	-0.089893	-63.216113	-49.964018	62.205817	-49.964018	62.205817	-0.179624	144.565284
4.400000	-0.091276	-63.891324	-49.780387	60.523384	-49.780387	60.523384	-0.181300	142.889875
4.450000	-0.092678	-64.565149	-49.601293	58.841661	-49.601293	58.841661	-0.182991	141.216968
4.500000	-0.094098	-65.237587	-49.426687	57.160879	-49.426687	57.160879	-0.184696	139.546288
4.550000	-0.095537	-65.908637	-49.256522	55.481293	-49.256522	55.481293	-0.186414	137.877573
4.600000	-0.096995	-66.578297	-49.090753	53.803186	-49.090753	53.803186	-0.188145	136.210569
4.650000	-0.098472	-67.246568	-48.929341	52.126870	-48.929341	52.126870	-0.189886	134.545033
4.700000	-0.099970	-67.913448	-48.772243	50.452680	-48.772243	50.452680	-0.191636	132.880728
4.750000	-0.101487	-68.578939	-48.619423	48.780981	-48.619423	48.780981	-0.193395	131.217430
4.800000	-0.103025	-69.243040	-48.470841	47.112159	-48.470841	47.112159	-0.195161	129.554923
4.850000	-0.104584	-69.905752	-48.326459	45.446627	-48.326459	45.446627	-0.196932	127.893000
4.900000	-0.106164	-70.567076	-48.186239	43.784816	-48.186239	43.784816	-0.198708	126.231461
4.950000	-0.107766	-71.227014	-48.050140	42.127183	-48.050140	42.127183	-0.200488	124.570118
5.000000	-0.109390	-71.885566	-47.918123	40.474200	-47.918123	40.474200	-0.202269	122.908791
5.050000	-0.111037	-72.542676	-47.790239	38.826604	-47.790239	38.826604	-0.204052	121.247293
5.100000	-0.112707	-73.198404	-47.666356	37.184701	-47.666356	37.184701	-0.205834	119.585461
5.150000	-0.114399	-73.852754	-47.546427	35.549011	-47.546427	35.549011	-0.207615	117.923142
5.200000	-0.116115	-74.505729	-47.430401	33.920062	-47.430401	33.920062	-0.209393	116.260191
5.250000	-0.117855	-75.157331	-47.318226	32.298392	-47.318226	32.298392	-0.211168	114.596473
5.300000	-0.119619	-75.807564	-47.209846	30.684545	-47.209846	30.684545	-0.212939	112.931859
5.350000	-0.121408	-76.456431	-47.105204	29.079066	-47.105204	29.079066	-0.214704	111.266230
5.400000	-0.123221	-77.103936	-47.004238	27.482500	-47.004238	27.482500	-0.216463	109.599475
5.450000	-0.125059	-77.750084	-46.906885	25.895393	-46.906885	25.895393	-0.218215	107.931491
5.500000	-0.126923	-78.394878	-46.813076	24.318285	-46.813076	24.318285	-0.219959	106.262185
5.550000	-0.128813	-79.038323	-46.722742	22.751708	-46.722742	22.751708	-0.221695	104.591469
5.600000	-0.130730	-79.680424	-46.635809	21.196189	-46.635809	21.196189	-0.223421	102.919265
5.650000	-0.132670	-80.321360	-46.551880	19.650665	-46.551880	19.650665	-0.225140	101.245717
5.700000	-0.134640	-80.960773	-46.471550	18.118860	-46.471550	18.118860	-0.226847	99.570328
5.750000	-0.136638	-81.598858	-46.394387	16.599628	-46.394387	16.599628	-0.228543	97.893265
5.800000	-0.138664	-82.235621	-46.320307	15.093437	-46.320307	15.093437	-0.230229	96.214482
5.850000	-0.140719	-82.871068	-46.249226	13.600741	-46.249226	13.600741	-0.231904	94.533944
5.900000	-0.142802	-83.505205	-46.181055	12.121972	-46.181055	12.121972	-0.233568	92.851620
5.950000	-0.144914	-84.138038	-46.115706	10.657541	-46.115706	10.657541	-0.235221	91.167489
6.000000	-0.147056	-84.769575	-46.053089	9.207841	-46.053089	9.207841	-0.236863	89.481538
6.050000	-0.149228	-85.399822	-45.993113	7.773238	-45.993113	7.773238	-0.238494	87.793761
6.100000	-0.151429	-86.028786	-45.935686	6.354079	-45.935686	6.354079	-0.240115	86.104160
6.150000	-0.153662	-86.656474	-45.880716	4.950685	-45.880716	4.950685	-0.241726	84.412744
6.200000	-0.155926	-87.282895	-45.828111	3.563353	-45.828111	3.563353	-0.243327	82.719530
6.250000	-0.158221	-87.908055	-45.777778	2.192357	-45.777778	2.192357	-0.244919	81.024543
6.300000	-0.160549	-88.531936	-45.729666	0.838312	-45.729666	0.838312	-0.246503	79.327778
6.350000	-0.162910	-89.154574	-45.683641	-0.498913	-45.683641	-0.498913	-0.248079	77.629311
6.400000	-0.165303	-89.775976	-45.639613	-1.819120	-45.639613	-1.819120	-0.249649	75.929189
6.450000	-0.167729	-90.396151	-45.597494	-3.122134	-45.597494	-3.122134	-0.251214	74.227466
6.500000	-0.170189	-91.015108	-45.557198	-4.407801	-45.557198	-4.407801	-0.252774	72.524200
6.550000	-0.172683	-91.632856	-45.518640	-5.675994	-45.518640	-5.675994	-0.254330	70.819459
6.600000	-0.175211	-92.249403	-45.481739	-6.926606	-45.481739	-6.926606	-0.255885	69.113314
6.650000	-0.177774	-92.864759	-45.446415	-8.159553	-45.446415	-8.159553	-0.257440	67.405845
6.700000	-0.180376	-93.478820	-45.412721	-9.373032	-45.412721	-9.373032	-0.258995	65.697022
6.750000	-0.183010	-94.091811	-45.380335	-10.570283	-45.380335	-10.570283	-0.260554	63.987161
6.800000	-0.185681	-94.703640	-45.349310	-11.749742	-45.349310	-11.749742	-0.262116	62.276249
6.850000	-0.188388	-95.314318	-45.319581	-12.911407	-45.319581	-12.911407	-0.263685	60.564386
6.900000	-0.191132	-95.923853	-45.291090	-14.055293	-45.291090	-14.055293	-0.265261	58.851680
6.950000	-0.193912	-96.532258	-45.263784	-15.181435	-45.263784	-15.181435	-0.266848	57.138241
7.000000	-0.196731	-97.139541	-45.237616	-16.289881	-45.237616	-16.289881	-0.268446	55.424183
7.050000	-0.199588	-97.745713	-45.212546	-17.380696	-45.212546	-17.380696	-0.270059	53.709627
7.100000	-0.202483	-98.350786	-45.188543	-18.453961	-45.188543	-18.453961	-0.271687	51.994695
7.150000	-0.205417	-98.954770	-45.165584	-19.509764	-45.165584	-19.509764	-0.273333	50.279514
7.200000	-0.208390	-99.557676	-45.143657	-20.548207	-45.143657	-20.548207	-0.275000	48.564213
7.250000	-0.211402	-100.159516	-45.122764	-21.569395	-45.122764	-21.569395	-0.276689	46.848925
7.300000	-0.214455	-100.760301	-45.102917	-22.573435	-45.102917	-22.573435	-0.278403	45.133785
7.350000	-0.217548	-101.360042	-45.084149	-23.560428	-45.084149	-23.560428	-0.280145	43.418929
7.400000	-0.220682	-101.958752	-45.066511	-24.530458	-45.066511	-24.530458	-0.281915	41.704496
7.450000	-0.223857	-102.556442	-45.050077	-25.483581	-45.050077	-25.483581	-0.283718	39.990625
7.500000	-0.227073	-103.153124	-45.034950	-26.419800	-45.034950	-26.419800	-0.285555	38.277458
7.550000	-0.230333	-103.748767	-45.021339	-27.338291	-45.021339	-27.338291	-0.287430	36.565178
7.600000	-0.233635	-104.343428	-45.009373	-28.239563	-45.009373	-28.239563	-0.289344	34.853897
7.650000	-0.236979	-104.937120	-44.999290	-29.123180	-44.999290	-29.123180	-0.291300	33.143753
7.700000	-0.240367	-105.529854	-44.991387	-29.988393	-44.991387	-29.988393	-0.293299	31.434887
7.750000	-0.243797	-106.121644	-44.986039	-30.833978	-44.986039	-30.833978	-0.295344	29.727437
7.800000	-0.247272	-106.712502	-44.983699	-31.657994	-44.983699	-31.657994	-0.297437	28.021539
7.850000	-0.250790	-107.302443	-44.984913	-32.457438	-44.984913	-32.457438	-0.299580	26.317326
7.900000	-0.254352	-107.891478	-44.990309	-33.227724	-44.990309	-33.227724	-0.301776	24.614930
7.950000	-0.257955	-108.479707	-45.000032	-33.966221	-45.000032	-33.966221	-0.304021	22.914276
8.000000	-0.261606	-109.066980	-45.015656	-34.656260	-45.015656	-34.656260	-0.306327	21.215854
8.050000	-0.265302	-109.653388	-45.037207	-35.286499	-45.037207	-35.286499	-0.308691	19.519616
8.100000	-0.269044	-110.238945	-45.064546	-35.837170	-45.064546	-35.837170	-0.311116	17.825677
8.150000	-0.272832	-110.823656	-45.096353	-36.281297	-45.096353	-36.281297	-0.313604	16.134172
8.200000	-0.276666	-111.407536	-45.128969	-36.589141	-45.128969	-36.589141	-0.316156	14.445208
8.250000	-0.280547	-111.990607	-45.155601	-36.738612	-45.155601	-36.738612	-0.318774	12.758854
8.300000	-0.284474	-112.572885	-45.166341	-36.728237	-45.166341	-36.728237	-0.321459	11.075200
8.350000	-0.288450	-113.154340	-45.148283	-36.594885	-45.148283	-36.594885	-0.324217	9.394491
8.400000	-0.292471	-113.735073	-45.098428	-36.429884	-45.098428	-36.429884	-0.327041	7.716479
8.450000	-0.296539	-114.315069	-45.016822	-36.325268	-45.016822	-36.325268	-0.329936	6.041336
8.500000	-0.300653	-114.894341	-44.912471	-36.356633	-44.912471	-36.356633	-0.332902	4.369115
8.550000	-0.304814	-115.472904	-44.798032	-36.553290	-44.798032	-36.553290	-0.335941	2.699856
8.600000	-0.309028	-116.050698	-44.685543	-36.912142	-44.685543	-36.912142	-0.339063	1.033927
8.650000	-0.313289	-116.627812	-44.582055	-37.373046	-44.582055	-37.373046	-0.342260	-0.628965
8.700000	-0.317598	-117.204264	-44.489741	-37.893353	-44.489741	-37.893353	-0.345533	-2.288831
8.750000	-0.321954	-117.780070	-44.408429	-38.439878	-44.408429	-38.439878	-0.348884	-3.945677
8.800000	-0.326359	-118.355246	-44.336827	-38.989386	-44.336827	-38.989386	-0.352314	-5.599521
8.850000	-0.330811	-118.929806	-44.273303	-39.526962	-44.273303	-39.526962	-0.355823	-7.250395
8.900000	-0.335314	-119.503741	-44.216481	-40.042579	-44.216481	-40.042579	-0.359417	-8.898225
8.950000	-0.339868	-120.077052	-44.164993	-40.530172	-44.164993	-40.530172	-0.363098	-10.542996
9.000000	-0.344471	-120.649799	-44.117360	-40.989389	-44.117360	-40.989389	-0.366863	-12.185006
9.050000	-0.349123	-121.221997	-44.072756	-41.419505	-44.072756	-41.419505	-0.370713	-13.824357
9.100000	-0.353823	-121.793663	-44.030540	-41.820521	-44.030540	-41.820521	-0.374649	-15.461169
9.150000	-0.358572	-122.364813	-43.990221	-42.192829	-43.990221	-42.192829	-0.378674	-17.095581
9.200000	-0.363370	-122.935464	-43.951424	-42.537017	-43.951424	-42.537017	-0.382789	-18.727756
9.250000	-0.368221	-123.505591	-43.913946	-42.851279	-43.913946	-42.851279	-0.387005	-20.357705
9.300000	-0.373122	-124.075244	-43.877490	-43.138214	-43.877490	-43.138214	-0.391319	-21.985806
9.350000	-0.378072	-124.644452	-43.841886	-43.399121	-43.841886	-43.399121	-0.395733	-23.612347
9.400000	-0.383072	-125.213234	-43.807033	-43.634584	-43.807033	-43.634584	-0.400250	-25.237596
9.450000	-0.388120	-125.781606	-43.772858	-43.845135	-43.772858	-43.845135	-0.404874	-26.861852
9.500000	-0.393217	-126.349586	-43.739319	-44.031254	-43.739319	-44.031254	-0.409612	-28.485442
9.550000	-0.398365	-126.917184	-43.706402	-44.192800	-43.706402	-44.192800	-0.414471	-30.108734
9.600000	-0.403566	-127.484396	-43.674136	-44.328620	-43.674136	-44.328620	-0.419469	-31.732192
9.650000	-0.408815	-128.051275	-43.642486	-44.441267	-43.642486	-44.441267	-0.424604	-33.356287
9.700000	-0.414114	-128.617838	-43.611476	-44.531064	-43.611476	-44.531064	-0.429885	-34.981514
9.750000	-0.419459	-129.184119	-43.581106	-44.599404	-43.581106	-44.599404	-0.435316	-36.608302
9.800000	-0.424857	-129.750101	-43.551494	-44.643703	-43.551494	-44.643703	-0.440933	-38.237532
9.850000	-0.430304	-130.315820	-43.522655	-44.665568	-43.522655	-44.665568	-0.446743	-39.869770
9.900000	-0.435799	-130.881307	-43.494617	-44.666131	-43.494617	-44.666131	-0.452757	-41.505625
9.950000	-0.441346	-131.446560	-43.467516	-44.643554	-43.467516	-44.643554	-0.459020	-43.146326
10.000000	-0.446938	-132.011631	-43.441287	-44.601450	-43.441287	-44.601450	-0.465521	-44.791970
