! freq	dB(S11)	phase(S11)	dB(S12)	phase(S12)	
!     	dB(S21)	phase(S21)	dB(S22)	phase(S22)	
!S-par simulation data
#  GHz  S  DB  R 50
0.000000	0.000000	0.000000	-350.748449	0.000000	-350.748449	0.000000	-0.000000	0.000000
0.050000	-0.000122	-1.148097	-105.414395	102.405418	-105.414395	102.405418	-0.000122	-1.148077
0.100000	-0.000485	-2.295922	-99.702815	94.724006	-99.702815	94.724006	-0.000485	-2.295881
0.150000	-0.001079	-3.443216	-96.293281	91.324828	-96.293281	91.324828	-0.001078	-3.443156
0.200000	-0.001886	-4.589752	-93.895935	89.078446	-93.895935	89.078446	-0.001885	-4.589674
0.250000	-0.002899	-5.735259	-92.076921	87.344433	-92.076921	87.344433	-0.002897	-5.735163
0.300000	-0.004077	-6.879651	-90.631003	85.860403	-90.631003	85.860403	-0.004075	-6.879538
0.350000	-0.005405	-8.022746	-89.453753	84.557950	-89.453753	84.557950	-0.005402	-8.022617
0.400000	-0.006858	-9.164433	-88.481489	83.396727	-88.481489	83.396727	-0.006855	-9.164289
0.450000	-0.008413	-10.304630	-87.673550	82.360925	-87.673550	82.360925	-0.008409	-10.304472
0.500000	-0.010046	-11.443284	-87.002701	81.448296	-87.002701	81.448296	-0.010042	-11.443112
0.550000	-0.011738	-12.580362	-86.450114	80.665601	-86.450114	80.665601	-0.011733	-12.580177
0.600000	-0.013469	-13.715852	-86.002530	80.026865	-86.002530	80.026865	-0.013464	-13.715654
0.650000	-0.015224	-14.849754	-85.650540	79.553089	-85.650540	79.553089	-0.015219	-14.849542
0.700000	-0.016989	-15.982076	-85.387487	79.272911	-85.387487	79.272911	-0.016984	-15.981851
0.750000	-0.018754	-17.112833	-85.208687	79.224066	-85.208687	79.224066	-0.018749	-17.112595
0.800000	-0.020510	-18.242043	-85.110805	79.455655	-85.110805	79.455655	-0.020505	-18.241791
0.850000	-0.022250	-19.369723	-85.091232	80.031314	-85.091232	80.031314	-0.022246	-19.369456
0.900000	-0.023971	-20.495888	-85.147319	81.033374	-85.147319	81.033374	-0.023967	-20.495607
0.950000	-0.025668	-21.620552	-85.275248	82.567876	-85.275248	82.567876	-0.025664	-21.620255
1.000000	-0.027339	-22.743723	-85.468233	84.769717	-85.468233	84.769717	-0.027336	-22.743411
1.050000	-0.028985	-23.865408	-85.713635	87.805609	-85.713635	87.805609	-0.028982	-23.865079
1.100000	-0.030604	-24.985607	-85.988520	91.869261	-85.988520	91.869261	-0.030602	-24.985262
1.150000	-0.032197	-26.104317	-86.253692	97.157442	-86.253692	97.157442	-0.032195	-26.103955
1.200000	-0.033765	-27.221533	-86.447985	103.809327	-86.447985	103.809327	-0.033764	-27.221154
1.250000	-0.035310	-28.337244	-86.488644	111.795518	-86.488644	111.795518	-0.035309	-28.336847
1.300000	-0.036832	-29.451370	-86.273662	120.796346	-86.273662	120.796346	-0.036831	-29.450955
1.350000	-0.038333	-30.563960	-85.756541	130.060275	-85.756541	130.060275	-0.038332	-30.563527
1.400000	-0.039816	-31.674997	-84.948174	138.803483	-84.948174	138.803483	-0.039815	-31.674545
1.450000	-0.041283	-32.784459	-83.915557	146.447503	-83.915557	146.447503	-0.041282	-32.783989
1.500000	-0.042734	-33.892326	-82.745722	152.743961	-82.745722	152.743961	-0.042734	-33.891836
1.550000	-0.044173	-34.998573	-81.514580	157.709558	-81.514580	157.709558	-0.044173	-34.998064
1.600000	-0.045601	-36.103178	-80.275218	161.500120	-80.275218	161.500120	-0.045600	-36.102650
1.650000	-0.047018	-37.206115	-79.059631	164.313156	-79.059631	164.313156	-0.047018	-37.205568
1.700000	-0.048428	-38.307361	-77.884796	166.336496	-77.884796	166.336496	-0.048428	-38.306795
1.750000	-0.049831	-39.406891	-76.758306	167.729309	-76.758306	167.729309	-0.049831	-39.406305
1.800000	-0.051229	-40.504679	-75.682348	168.619483	-75.682348	168.619483	-0.051229	-40.504074
1.850000	-0.052624	-41.600703	-74.656177	169.107359	-74.656177	169.107359	-0.052624	-41.600078
1.900000	-0.054015	-42.694937	-73.677576	169.271005	-73.677576	169.271005	-0.054015	-42.694293
1.950000	-0.055406	-43.787360	-72.743676	169.171164	-72.743676	169.171164	-0.055405	-43.786696
2.000000	-0.056795	-44.877948	-71.851413	168.855315	-71.851413	168.855315	-0.056795	-44.877264
2.050000	-0.058186	-45.966680	-70.997757	168.360827	-70.997757	168.360827	-0.058186	-45.965977
2.100000	-0.059578	-47.053535	-70.179838	167.717355	-70.179838	167.717355	-0.059578	-47.052812
2.150000	-0.060972	-48.138494	-69.394994	166.948639	-69.394994	166.948639	-0.060972	-48.137751
2.200000	-0.062370	-49.221538	-68.640789	166.073844	-68.640789	166.073844	-0.062370	-49.220775
2.250000	-0.063772	-50.302650	-67.915005	165.108579	-67.915005	165.108579	-0.063772	-50.301867
2.300000	-0.065179	-51.381813	-67.215637	164.065657	-67.215637	164.065657	-0.065178	-51.381010
2.350000	-0.066591	-52.459013	-66.540867	162.955682	-66.540867	162.955682	-0.066591	-52.458190
2.400000	-0.068010	-53.534235	-65.889052	161.787490	-65.889052	161.787490	-0.068009	-53.533392
2.450000	-0.069435	-54.607468	-65.258704	160.568500	-65.258704	160.568500	-0.069434	-54.606604
2.500000	-0.070868	-55.678700	-64.648474	159.304978	-64.648474	159.304978	-0.070867	-55.677816
2.550000	-0.072309	-56.747834	-64.056211	158.000759	-64.056211	158.000759	-0.072308	-56.746929
2.600000	-0.073758	-57.814948	-63.481836	156.662237	-63.481836	156.662237	-0.073757	-57.814022
2.650000	-0.075217	-58.880036	-62.924316	155.293252	-62.924316	155.293252	-0.075216	-58.879089
2.700000	-0.076685	-59.943092	-62.382709	153.897129	-62.382709	153.897129	-0.076684	-59.942123
2.750000	-0.078164	-61.004112	-61.856155	152.476757	-61.856155	152.476757	-0.078163	-61.003122
2.800000	-0.079653	-62.063094	-61.343862	151.034662	-61.343862	151.034662	-0.079652	-62.062082
2.850000	-0.081153	-63.120036	-60.845101	149.573057	-60.845101	149.573057	-0.081152	-63.119001
2.900000	-0.082666	-64.174938	-60.359204	148.093890	-60.359204	148.093890	-0.082664	-64.173881
2.950000	-0.084190	-65.227802	-59.885551	146.598882	-59.885551	146.598882	-0.084188	-65.226722
3.000000	-0.085727	-66.278630	-59.423568	145.089559	-59.423568	145.089559	-0.085725	-66.277528
3.050000	-0.087277	-67.327428	-58.972725	143.567279	-58.972725	143.567279	-0.087276	-67.326302
3.100000	-0.088841	-68.374200	-58.532527	142.033252	-58.532527	142.033252	-0.088839	-68.373050
3.150000	-0.090419	-69.418953	-58.102516	140.488564	-58.102516	140.488564	-0.090417	-69.417780
3.200000	-0.092012	-70.461696	-57.682262	138.934187	-57.682262	138.934187	-0.092010	-70.460499
3.250000	-0.093620	-71.502439	-57.271366	137.370997	-57.271366	137.370997	-0.093618	-71.501217
3.300000	-0.095244	-72.541192	-56.869454	135.799784	-56.869454	135.799784	-0.095242	-72.539945
3.350000	-0.096884	-73.577968	-56.476175	134.221265	-56.476175	134.221265	-0.096882	-73.576696
3.400000	-0.098541	-74.612780	-56.091200	132.636087	-56.091200	132.636087	-0.098539	-74.611482
3.450000	-0.100215	-75.645644	-55.714221	131.044842	-55.714221	131.044842	-0.100213	-75.644320
3.500000	-0.101907	-76.676575	-55.344946	129.448066	-55.344946	129.448066	-0.101905	-76.675225
3.550000	-0.103618	-77.705591	-54.983102	127.846252	-54.983102	127.846252	-0.103616	-77.704215
3.600000	-0.105348	-78.732712	-54.628431	126.239849	-54.628431	126.239849	-0.105346	-78.731308
3.650000	-0.107097	-79.757956	-54.280688	124.629271	-54.280688	124.629271	-0.107095	-79.756525
3.700000	-0.108866	-80.781345	-53.939643	123.014896	-53.939643	123.014896	-0.108864	-80.779886
3.750000	-0.110657	-81.802903	-53.605077	121.397075	-53.605077	121.397075	-0.110655	-81.801415
3.800000	-0.112470	-82.822574	-53.276519	119.776009	-53.276519	119.776009	-0.112467	-82.821058
3.850000	-0.114304	-83.840464	-52.954061	118.152143	-52.954061	118.152143	-0.114302	-83.838918
3.900000	-0.116162	-84.856599	-52.637513	116.525751	-52.637513	116.525751	-0.116159	-84.855024
3.950000	-0.118042	-85.871007	-52.326697	114.897088	-52.326697	114.897088	-0.118040	-85.869402
4.000000	-0.119947	-86.883716	-52.021444	113.266390	-52.021444	113.266390	-0.119944	-86.882080
4.050000	-0.121876	-87.894756	-51.721591	111.633879	-51.721591	111.633879	-0.121873	-87.893089
4.100000	-0.123830	-88.904158	-51.426984	109.999761	-51.426984	109.999761	-0.123827	-88.902460
4.150000	-0.125811	-89.911954	-51.137477	108.364229	-51.137477	108.364229	-0.125807	-89.910224
4.200000	-0.127817	-90.918178	-50.852928	106.727463	-50.852928	106.727463	-0.127813	-90.916416
4.250000	-0.129851	-91.922864	-50.573204	105.089633	-50.573204	105.089633	-0.129847	-91.921068
4.300000	-0.131912	-92.926047	-50.298175	103.450897	-50.298175	103.450897	-0.131908	-92.924218
4.350000	-0.134002	-93.927763	-50.027720	101.811405	-50.027720	101.811405	-0.133997	-93.925901
4.400000	-0.136120	-94.928052	-49.761720	100.171297	-49.761720	100.171297	-0.136116	-94.926156
4.450000	-0.138269	-95.926951	-49.500062	98.530707	-49.500062	98.530707	-0.138264	-95.925020
4.500000	-0.140447	-96.924501	-49.242638	96.889759	-49.242638	96.889759	-0.140442	-96.922534
4.550000	-0.142657	-97.920742	-48.989344	95.248571	-48.989344	95.248571	-0.142652	-97.918739
4.600000	-0.144898	-98.915716	-48.740080	93.607253	-48.740080	93.607253	-0.144893	-98.913677
4.650000	-0.147172	-99.909467	-48.494751	91.965912	-48.494751	91.965912	-0.147166	-99.907391
4.700000	-0.149478	-100.902039	-48.253263	90.324647	-48.253263	90.324647	-0.149472	-100.899925
4.750000	-0.151818	-101.893476	-48.015527	88.683550	-48.015527	88.683550	-0.151812	-101.891325
4.800000	-0.154192	-102.883827	-47.781459	87.042712	-47.781459	87.042712	-0.154186	-102.881636
4.850000	-0.156601	-103.873136	-47.550975	85.402215	-47.550975	85.402215	-0.156594	-103.870907
4.900000	-0.159045	-104.861454	-47.323996	83.762139	-47.323996	83.762139	-0.159038	-104.859185
4.950000	-0.161526	-105.848830	-47.100445	82.122558	-47.100445	82.122558	-0.161518	-105.846520
5.000000	-0.164043	-106.835314	-46.880247	80.483544	-46.880247	80.483544	-0.164035	-106.832962
5.050000	-0.166599	-107.820923	-46.663240	78.845193	-46.663240	78.845193	-0.166591	-107.818530
5.100000	-0.169193	-108.805750	-46.449454	77.207543	-46.449454	77.207543	-0.169184	-108.803314
5.150000	-0.171826	-109.789848	-46.238821	75.570651	-46.238821	75.570651	-0.171817	-109.787368
5.200000	-0.174497	-110.773272	-46.031277	73.934574	-46.031277	73.934574	-0.174488	-110.770748
5.250000	-0.177209	-111.756078	-45.826758	72.299362	-45.826758	72.299362	-0.177199	-111.753509
5.300000	-0.179961	-112.738322	-45.625205	70.665063	-45.625205	70.665063	-0.179951	-112.735708
5.350000	-0.182753	-113.720064	-45.426557	69.031723	-45.426557	69.031723	-0.182743	-113.717403
5.400000	-0.185587	-114.701361	-45.230759	67.399384	-45.230759	67.399384	-0.185577	-114.698653
5.450000	-0.188464	-115.682274	-45.037755	65.768083	-45.037755	65.768083	-0.188453	-115.679519
5.500000	-0.191382	-116.662865	-44.847491	64.137858	-44.847491	64.137858	-0.191371	-116.660061
5.550000	-0.194344	-117.643196	-44.659916	62.508741	-44.659916	62.508741	-0.194333	-117.640342
5.600000	-0.197350	-118.623329	-44.474980	60.880763	-44.474980	60.880763	-0.197338	-118.620425
5.650000	-0.200400	-119.603330	-44.292635	59.253951	-44.292635	59.253951	-0.200387	-119.600375
5.700000	-0.203494	-120.583264	-44.112834	57.628330	-44.112834	57.628330	-0.203481	-120.580256
5.750000	-0.206634	-121.563198	-43.935531	56.003923	-43.935531	56.003923	-0.206620	-121.560137
5.800000	-0.209819	-122.543199	-43.760682	54.380750	-43.760682	54.380750	-0.209805	-122.540083
5.850000	-0.213050	-123.523336	-43.588246	52.758828	-43.588246	52.758828	-0.213036	-123.520165
5.900000	-0.216328	-124.503679	-43.418180	51.138175	-43.418180	51.138175	-0.216314	-124.500452
5.950000	-0.219654	-125.484299	-43.250445	49.518801	-43.250445	49.518801	-0.219639	-125.481015
6.000000	-0.223026	-126.465268	-43.085003	47.900720	-43.085003	47.900720	-0.223011	-126.461926
6.050000	-0.226447	-127.446660	-42.921817	46.283940	-42.921817	46.283940	-0.226431	-127.443259
6.100000	-0.229917	-128.428549	-42.760850	44.668468	-42.760850	44.668468	-0.229900	-128.425088
6.150000	-0.233435	-129.411011	-42.602067	43.054310	-42.602067	43.054310	-0.233418	-129.407489
6.200000	-0.237002	-130.394123	-42.445436	41.441469	-42.445436	41.441469	-0.236985	-130.390538
6.250000	-0.240620	-131.377962	-42.290924	39.829948	-42.290924	39.829948	-0.240601	-131.374314
6.300000	-0.244289	-132.362647	-42.138475	38.219804	-42.138475	38.219804	-0.244270	-132.358934
6.350000	-0.248009	-133.348226	-41.988087	36.610979	-41.988087	36.610979	-0.247990	-133.344447
6.400000	-0.251780	-134.334781	-41.839731	35.003470	-41.839731	35.003470	-0.251760	-134.330935
6.450000	-0.255603	-135.322395	-41.693380	33.397273	-41.693380	33.397273	-0.255582	-135.318482
6.500000	-0.259477	-136.311153	-41.549006	31.792384	-41.549006	31.792384	-0.259456	-136.307170
6.550000	-0.263403	-137.301140	-41.406584	30.188797	-41.406584	30.188797	-0.263381	-137.297087
6.600000	-0.267382	-138.292442	-41.266089	28.586503	-41.266089	28.586503	-0.267359	-138.288317
6.650000	-0.271413	-139.285148	-41.127498	26.985497	-41.127498	26.985497	-0.271390	-139.280950
6.700000	-0.275497	-140.279347	-40.990786	25.385770	-40.990786	25.385770	-0.275473	-140.275074
6.750000	-0.279635	-141.275129	-40.855934	23.787312	-40.855934	23.787312	-0.279610	-141.270781
6.800000	-0.283827	-142.272586	-40.722919	22.190115	-40.722919	22.190115	-0.283801	-142.268161
6.850000	-0.288073	-143.271812	-40.591723	20.594168	-40.591723	20.594168	-0.288046	-143.267309
6.900000	-0.292373	-144.272900	-40.462326	18.999462	-40.462326	18.999462	-0.292345	-144.268318
6.950000	-0.296727	-145.275947	-40.334710	17.405986	-40.334710	17.405986	-0.296699	-145.271284
7.000000	-0.301137	-146.281050	-40.208858	15.813731	-40.208858	15.813731	-0.301108	-146.276305
7.050000	-0.305602	-147.288308	-40.084754	14.222686	-40.084754	14.222686	-0.305572	-147.283479
7.100000	-0.310123	-148.297819	-39.962382	12.632842	-39.962382	12.632842	-0.310092	-148.292905
7.150000	-0.314699	-149.309687	-39.841728	11.044190	-39.841728	11.044190	-0.314668	-149.304687
7.200000	-0.319332	-150.324013	-39.722779	9.456719	-39.722779	9.456719	-0.319299	-150.318925
7.250000	-0.324021	-151.340901	-39.605520	7.870422	-39.605520	7.870422	-0.323987	-151.335724
7.300000	-0.328767	-152.360457	-39.489941	6.285291	-39.489941	6.285291	-0.328732	-152.355190
7.350000	-0.333570	-153.382789	-39.376030	4.701319	-39.376030	4.701319	-0.333534	-153.377429
7.400000	-0.338429	-154.408003	-39.263775	3.118498	-39.263775	3.118498	-0.338392	-154.402550
7.450000	-0.343347	-155.436211	-39.153167	1.536823	-39.153167	1.536823	-0.343308	-155.430663
7.500000	-0.348322	-156.467524	-39.044196	-0.043711	-39.044196	-0.043711	-0.348282	-156.461879
7.550000	-0.353357	-157.502199	-38.936867	-1.623059	-38.936867	-1.623059	-0.353316	-157.496455
7.600000	-0.358450	-158.540216	-38.831162	-3.201274	-38.831162	-3.201274	-0.358409	-158.534373
7.650000	-0.363602	-159.581691	-38.727072	-4.778357	-38.727072	-4.778357	-0.363559	-159.575746
7.700000	-0.368813	-160.626741	-38.624591	-6.354311	-38.624591	-6.354311	-0.368768	-160.620694
7.750000	-0.374082	-161.675485	-38.523711	-7.929137	-38.523711	-7.929137	-0.374036	-161.669333
7.800000	-0.379410	-162.728044	-38.424427	-9.502834	-38.424427	-9.502834	-0.379364	-162.721786
7.850000	-0.384798	-163.784540	-38.326732	-11.075403	-38.326732	-11.075403	-0.384750	-163.778173
7.900000	-0.390245	-164.845095	-38.230622	-12.646842	-38.230622	-12.646842	-0.390196	-164.838619
7.950000	-0.395752	-165.909834	-38.136091	-14.217152	-38.136091	-14.217152	-0.395701	-165.903247
8.000000	-0.401318	-166.978885	-38.043134	-15.786332	-38.043134	-15.786332	-0.401266	-166.972184
8.050000	-0.406945	-168.052374	-37.951746	-17.354382	-37.951746	-17.354382	-0.406891	-168.045558
8.100000	-0.412631	-169.130431	-37.861924	-18.921304	-37.861924	-18.921304	-0.412576	-169.123498
8.150000	-0.418378	-170.213187	-37.773662	-20.487099	-37.773662	-20.487099	-0.418322	-170.206135
8.200000	-0.424185	-171.300774	-37.686957	-22.051774	-37.686957	-22.051774	-0.424128	-171.293601
8.250000	-0.430053	-172.393326	-37.601805	-23.615335	-37.601805	-23.615335	-0.429994	-172.386030
8.300000	-0.435981	-173.490978	-37.518200	-25.177794	-37.518200	-25.177794	-0.435921	-173.483558
8.350000	-0.441970	-174.593868	-37.436139	-26.739168	-37.436139	-26.739168	-0.441908	-174.586320
8.400000	-0.448020	-175.702133	-37.355617	-28.299479	-37.355617	-28.299479	-0.447957	-175.694456
8.450000	-0.454131	-176.815914	-37.276629	-29.858756	-37.276629	-29.858756	-0.454066	-176.808106
8.500000	-0.460302	-177.935352	-37.199171	-31.417038	-37.199171	-31.417038	-0.460235	-177.927410
8.550000	-0.466534	-179.060590	-37.123236	-32.974377	-37.123236	-32.974377	-0.466465	-179.052512
8.600000	-0.472826	179.808228	-37.048820	-34.530836	-37.048820	-34.530836	-0.472756	179.816444
8.650000	-0.479179	178.670954	-36.975915	-36.086497	-36.975915	-36.086497	-0.479108	178.679311
8.700000	-0.485593	177.527440	-36.904515	-37.641461	-36.904515	-37.641461	-0.485519	177.535941
8.750000	-0.492066	176.377538	-36.834612	-39.195857	-36.834612	-39.195857	-0.491991	176.386184
8.800000	-0.498602	175.220802	-36.766240	-40.749832	-36.766240	-40.749832	-0.498525	175.229596
8.850000	-0.505198	174.057355	-36.699349	-42.303614	-36.699349	-42.303614	-0.505119	174.066300
8.900000	-0.511853	172.887042	-36.633930	-43.857453	-36.633930	-43.857453	-0.511772	172.896140
8.950000	-0.518567	171.709701	-36.569973	-45.411655	-36.569973	-45.411655	-0.518483	171.718955
9.000000	-0.525339	170.525169	-36.507466	-46.966604	-36.507466	-46.966604	-0.525254	170.534583
9.050000	-0.532171	169.333280	-36.446400	-48.522771	-36.446400	-48.522771	-0.532082	169.342855
9.100000	-0.539060	168.133862	-36.386763	-50.080744	-36.386763	-50.080744	-0.538969	168.143600
9.150000	-0.546008	166.926737	-36.328546	-51.641252	-36.328546	-51.641252	-0.545913	166.936641
9.200000	-0.553009	165.712656	-36.271620	-53.204699	-36.271620	-53.204699	-0.552910	165.722728
9.250000	-0.560077	164.489221	-36.216270	-54.773359	-36.216270	-54.773359	-0.559975	164.499463
9.300000	-0.567203	163.258103	-36.162255	-56.347603	-36.162255	-56.347603	-0.567097	163.268515
9.350000	-0.574396	162.018117	-36.109718	-57.930072	-36.109718	-57.930072	-0.574286	162.028702
9.400000	-0.581659	160.769535	-36.058630	-59.522629	-36.058630	-59.522629	-0.581543	160.780293
9.450000	-0.589000	159.512115	-36.009064	-61.128367	-36.009064	-61.128367	-0.588879	159.523046
9.500000	-0.596439	158.245068	-35.961224	-62.752294	-35.961224	-62.752294	-0.596313	158.256172
9.550000	-0.603986	156.969214	-35.915153	-64.397405	-35.915153	-64.397405	-0.603854	156.980492
9.600000	-0.611698	155.682603	-35.871579	-66.075957	-35.871579	-66.075957	-0.611560	155.694056
9.650000	-0.619593	154.386901	-35.830725	-67.791336	-35.830725	-67.791336	-0.619450	154.398533
9.700000	-0.627782	153.080207	-35.794435	-69.566121	-35.794435	-69.566121	-0.627632	153.092028
9.750000	-0.636314	151.763924	-35.764265	-71.411560	-35.764265	-71.411560	-0.636157	151.775947
9.800000	-0.645322	150.437642	-35.745124	-73.361745	-35.745124	-73.361745	-0.645153	150.449883
9.850000	-0.654880	149.102348	-35.744941	-75.449975	-35.744941	-75.449975	-0.654693	149.114811
9.900000	-0.664980	147.759689	-35.777745	-77.703554	-35.777745	-77.703554	-0.664764	147.772347
9.950000	-0.675566	146.410423	-35.878309	-80.136784	-35.878309	-80.136784	-0.675313	146.423194
10.000000	-0.686374	145.055830	-36.101048	-82.549869	-36.101048	-82.549869	-0.686083	145.068583
