! freq	dB(S11)	phase(S11)	dB(S12)	phase(S12)	
!     	dB(S21)	phase(S21)	dB(S22)	phase(S22)	
!S-par simulation data
#  GHz  S  DB  R 50
0.000000	-0.000000	0.000000	-366.018642	180.000000	-366.018642	180.000000	-0.000000	-0.000000
0.050000	-0.000124	-1.115018	-86.392105	-4.296165	-86.392105	-4.296165	-0.000107	-0.854680
0.100000	-0.000493	-2.229762	-86.426540	-6.277834	-86.426540	-6.277834	-0.000425	-1.709108
0.150000	-0.001096	-3.343972	-86.487635	-8.803870	-86.487635	-8.803870	-0.000941	-2.563052
0.200000	-0.001912	-4.457424	-86.573750	-11.500951	-86.573750	-11.500951	-0.001634	-3.416319
0.250000	-0.002933	-5.569855	-86.686673	-14.313827	-86.686673	-14.313827	-0.002491	-4.268694
0.300000	-0.004116	-6.681189	-86.824627	-17.224407	-86.824627	-17.224407	-0.003471	-5.120139
0.350000	-0.005444	-7.791263	-86.989310	-20.245863	-86.989310	-20.245863	-0.004557	-5.970545
0.400000	-0.006891	-8.899982	-87.181484	-23.395344	-87.181484	-23.395344	-0.005723	-6.819871
0.450000	-0.008432	-10.007287	-87.401932	-26.696385	-87.401932	-26.696385	-0.006948	-7.668108
0.500000	-0.010044	-11.113147	-87.651371	-30.178636	-87.651371	-30.178636	-0.008212	-8.515270
0.550000	-0.011706	-12.217551	-87.930309	-33.878516	-87.930309	-33.878516	-0.009499	-9.361388
0.600000	-0.013399	-13.320508	-88.238839	-37.840359	-88.238839	-37.840359	-0.010796	-10.206499
0.650000	-0.015110	-14.422037	-88.576290	-42.117853	-88.576290	-42.117853	-0.012094	-11.050648
0.700000	-0.016825	-15.522165	-88.940718	-46.775513	-88.940718	-46.775513	-0.013385	-11.893879
0.750000	-0.018535	-16.620922	-89.328120	-51.889694	-89.328120	-51.889694	-0.014663	-12.736232
0.800000	-0.020232	-17.718339	-89.731314	-57.548225	-89.731314	-57.548225	-0.015926	-13.577744
0.850000	-0.021912	-18.814443	-90.138414	-63.846914	-90.138414	-63.846914	-0.017173	-14.418445
0.900000	-0.023570	-19.909262	-90.531000	-70.880218	-90.531000	-70.880218	-0.018401	-15.258362
0.950000	-0.025204	-21.002815	-90.882425	-78.722622	-90.882425	-78.722622	-0.019612	-16.097512
1.000000	-0.026814	-22.095120	-91.157367	-87.398472	-91.157367	-87.398472	-0.020805	-16.935911
1.050000	-0.028398	-23.186188	-91.314373	-96.843540	-91.314373	-96.843540	-0.021983	-17.773567
1.100000	-0.029958	-24.276026	-91.313030	-106.872836	-91.313030	-106.872836	-0.023145	-18.610485
1.150000	-0.031495	-25.364635	-91.125004	-117.180187	-91.125004	-117.180187	-0.024294	-19.446665
1.200000	-0.033009	-26.452016	-90.744144	-127.389699	-90.744144	-127.389699	-0.025431	-20.282104
1.250000	-0.034502	-27.538161	-90.189054	-137.146172	-90.189054	-137.146172	-0.026556	-21.116798
1.300000	-0.035976	-28.623007	-89.489228	-146.160153	-89.489228	-146.160153	-0.027672	-21.950704
1.350000	-0.037433	-29.706597	-88.696221	-154.346008	-88.696221	-154.346008	-0.028780	-22.783847
1.400000	-0.038874	-30.788916	-87.848462	-161.702973	-87.848462	-161.702973	-0.029880	-23.616214
1.450000	-0.040303	-31.869948	-86.975850	-168.293554	-86.975850	-168.293554	-0.030975	-24.447794
1.500000	-0.041719	-32.949677	-86.099456	-174.208763	-86.099456	-174.208763	-0.032065	-25.278573
1.550000	-0.043126	-34.028082	-85.233032	-179.545638	-85.233032	-179.545638	-0.033151	-26.108538
1.600000	-0.044523	-35.105146	-84.384920	175.604681	-84.384920	175.604681	-0.034233	-26.937674
1.650000	-0.045914	-36.180848	-83.559746	171.161945	-83.559746	171.161945	-0.035313	-27.765966
1.700000	-0.047300	-37.255167	-82.759693	167.057932	-82.759693	167.057932	-0.036392	-28.593400
1.750000	-0.048680	-38.328084	-81.985399	163.235724	-81.985399	163.235724	-0.037469	-29.419961
1.800000	-0.050058	-39.399577	-81.236563	159.648267	-81.236563	159.648267	-0.038546	-30.245635
1.850000	-0.051434	-40.469628	-80.512335	156.256784	-80.512335	156.256784	-0.039622	-31.070405
1.900000	-0.052809	-41.538216	-79.811571	153.029307	-79.811571	153.029307	-0.040699	-31.894259
1.950000	-0.054184	-42.605321	-79.132986	149.939402	-79.132986	149.939402	-0.041778	-32.717180
2.000000	-0.055559	-43.670925	-78.475258	146.965115	-78.475258	146.965115	-0.042857	-33.539156
2.050000	-0.056937	-44.735011	-77.837083	144.088123	-77.837083	144.088123	-0.043938	-34.360171
2.100000	-0.058317	-45.797560	-77.217211	141.293037	-77.217211	141.293037	-0.045022	-35.180213
2.150000	-0.059701	-46.858557	-76.614463	138.566864	-76.614463	138.566864	-0.046108	-35.999267
2.200000	-0.061088	-47.917984	-76.027739	135.898559	-76.027739	135.898559	-0.047197	-36.817321
2.250000	-0.062480	-48.975829	-75.456024	133.278682	-75.456024	133.278682	-0.048289	-37.634362
2.300000	-0.063878	-50.032076	-74.898383	130.699116	-74.898383	130.699116	-0.049385	-38.450378
2.350000	-0.065281	-51.086714	-74.353959	128.152841	-74.353959	128.152841	-0.050485	-39.265355
2.400000	-0.066691	-52.139729	-73.821969	125.633755	-73.821969	125.633755	-0.051589	-40.079283
2.450000	-0.068108	-53.191111	-73.301700	123.136526	-73.301700	123.136526	-0.052698	-40.892149
2.500000	-0.069532	-54.240851	-72.792502	120.656474	-72.792502	120.656474	-0.053812	-41.703944
2.550000	-0.070965	-55.288867	-72.292997	118.189870	-72.292997	118.189870	-0.054932	-42.514608
2.600000	-0.072407	-56.335222	-71.803488	115.732379	-71.803488	115.732379	-0.056058	-43.324177
2.650000	-0.073858	-57.379911	-71.323488	113.280813	-71.323488	113.280813	-0.057190	-44.132642
2.700000	-0.075319	-58.422928	-70.852556	110.832330	-70.852556	110.832330	-0.058328	-44.939993
2.750000	-0.076789	-59.464269	-70.390294	108.384400	-70.390294	108.384400	-0.059474	-45.746221
2.800000	-0.078271	-60.503929	-69.936342	105.934759	-69.936342	105.934759	-0.060627	-46.551317
2.850000	-0.079763	-61.541907	-69.490380	103.481390	-69.490380	103.481390	-0.061787	-47.355272
2.900000	-0.081268	-62.578201	-69.052117	101.022494	-69.052117	101.022494	-0.062956	-48.158078
2.950000	-0.082785	-63.612811	-68.621295	98.556471	-68.621295	98.556471	-0.064134	-48.959727
3.000000	-0.084314	-64.645738	-68.197685	96.081903	-68.197685	96.081903	-0.065320	-49.760212
3.050000	-0.085856	-65.676985	-67.781081	93.597543	-67.781081	93.597543	-0.066516	-50.559526
3.100000	-0.087413	-66.706552	-67.371303	91.102298	-67.371303	91.102298	-0.067721	-51.357663
3.150000	-0.088983	-67.734446	-66.968190	88.595226	-66.968190	88.595226	-0.068937	-52.154615
3.200000	-0.090569	-68.760670	-66.571603	86.075526	-66.571603	86.075526	-0.070164	-52.950377
3.250000	-0.092170	-69.785231	-66.181418	83.542527	-66.181418	83.542527	-0.071401	-53.744943
3.300000	-0.093786	-70.808135	-65.797528	80.995689	-65.797528	80.995689	-0.072650	-54.538309
3.350000	-0.095419	-71.829391	-65.419840	78.434594	-65.419840	78.434594	-0.073911	-55.330469
3.400000	-0.097070	-72.849008	-65.048272	75.858943	-65.048272	75.858943	-0.075185	-56.121420
3.450000	-0.098737	-73.866996	-64.682754	73.268550	-64.682754	73.268550	-0.076471	-56.911156
3.500000	-0.100423	-74.883366	-64.323224	70.663341	-64.323224	70.663341	-0.077770	-57.699675
3.550000	-0.102128	-75.898130	-63.969628	68.043349	-63.969628	68.043349	-0.079084	-58.486972
3.600000	-0.103851	-76.911301	-63.621916	65.408709	-63.621916	65.408709	-0.080411	-59.273047
3.650000	-0.105595	-77.922892	-63.280044	62.759655	-63.280044	62.759655	-0.081753	-60.057895
3.700000	-0.107359	-78.932920	-62.943970	60.096516	-62.943970	60.096516	-0.083110	-60.841515
3.750000	-0.109144	-79.941399	-62.613654	57.419711	-62.613654	57.419711	-0.084482	-61.623905
3.800000	-0.110952	-80.948281	-62.288784	54.729199	-62.288784	54.729199	-0.085872	-62.405010
3.850000	-0.112782	-81.953651	-61.969622	52.026165	-61.969622	52.026165	-0.087277	-63.184883
3.900000	-0.114635	-82.957527	-61.656121	49.311273	-61.656121	49.311273	-0.088700	-63.963524
3.950000	-0.116511	-83.959931	-61.348232	46.585253	-61.348232	46.585253	-0.090140	-64.740932
4.000000	-0.118411	-84.960881	-61.045898	43.848890	-61.045898	43.848890	-0.091598	-65.517108
4.050000	-0.120336	-85.960401	-60.749060	41.103020	-60.749060	41.103020	-0.093074	-66.292052
4.100000	-0.122287	-86.958511	-60.457650	38.348520	-60.457650	38.348520	-0.094569	-67.065766
4.150000	-0.124263	-87.955237	-60.171592	35.586301	-60.171592	35.586301	-0.096083	-67.838250
4.200000	-0.126266	-88.950601	-59.890805	32.817298	-59.890805	32.817298	-0.097617	-68.609508
4.250000	-0.128295	-89.944629	-59.615198	30.042464	-59.615198	30.042464	-0.099171	-69.379541
4.300000	-0.130353	-90.937347	-59.344673	27.262758	-59.344673	27.262758	-0.100746	-70.148352
4.350000	-0.132439	-91.928782	-59.079123	24.479139	-59.079123	24.479139	-0.102342	-70.915943
4.400000	-0.134553	-92.918962	-58.818434	21.692556	-58.818434	21.692556	-0.103959	-71.682319
4.450000	-0.136697	-93.907915	-58.562483	18.903940	-58.562483	18.903940	-0.105599	-72.447483
4.500000	-0.138871	-94.895671	-58.311141	16.114197	-58.311141	16.114197	-0.107261	-73.211440
4.550000	-0.141076	-95.882259	-58.064269	13.324203	-58.064269	13.324203	-0.108946	-73.974193
4.600000	-0.143312	-96.867712	-57.821725	10.534792	-57.821725	10.534792	-0.110654	-74.735749
4.650000	-0.145580	-97.852061	-57.583360	7.746754	-57.583360	7.746754	-0.112386	-75.496111
4.700000	-0.147880	-98.835339	-57.349020	4.960828	-57.349020	4.960828	-0.114142	-76.255287
4.750000	-0.150213	-99.817579	-57.118546	2.177699	-57.118546	2.177699	-0.115924	-77.013282
4.800000	-0.152579	-100.798816	-56.891779	-0.602006	-56.891779	-0.602006	-0.117730	-77.770102
4.850000	-0.154980	-101.779086	-56.668554	-3.377725	-56.668554	-3.377725	-0.119562	-78.525755
4.900000	-0.157415	-102.758423	-56.448707	-6.148957	-56.448707	-6.148957	-0.121421	-79.280248
4.950000	-0.159885	-103.736866	-56.232073	-8.915269	-56.232073	-8.915269	-0.123306	-80.033588
5.000000	-0.162391	-104.714452	-56.018487	-11.676292	-56.018487	-11.676292	-0.125218	-80.785784
5.050000	-0.164934	-105.691185	-55.807685	-14.431474	-55.807685	-14.431474	-0.127158	-81.536794
5.100000	-0.167514	-106.667142	-55.599606	-17.180818	-55.599606	-17.180818	-0.129127	-82.286677
5.150000	-0.170132	-107.642364	-55.394091	-19.924165	-55.394091	-19.924165	-0.131125	-83.035442
5.200000	-0.172787	-108.616891	-55.190987	-22.661418	-55.190987	-22.661418	-0.133151	-83.783099
5.250000	-0.175480	-109.590765	-54.990146	-25.392540	-54.990146	-25.392540	-0.135206	-84.529658
5.300000	-0.178212	-110.564029	-54.791426	-28.117555	-54.791426	-28.117555	-0.137292	-85.275128
5.350000	-0.180983	-111.536726	-54.594691	-30.836539	-54.594691	-30.836539	-0.139407	-86.019521
5.400000	-0.183793	-112.508900	-54.399812	-33.549621	-54.399812	-33.549621	-0.141554	-86.762847
5.450000	-0.186644	-113.480596	-54.206668	-36.256979	-54.206668	-36.256979	-0.143731	-87.505117
5.500000	-0.189535	-114.451859	-54.015147	-38.958835	-54.015147	-38.958835	-0.145941	-88.246344
5.550000	-0.192466	-115.422737	-53.825144	-41.655450	-53.825144	-41.655450	-0.148182	-88.986538
5.600000	-0.195440	-116.393275	-53.636563	-44.347124	-53.636563	-44.347124	-0.150456	-89.725713
5.650000	-0.198454	-117.363522	-53.449318	-47.034186	-53.449318	-47.034186	-0.152763	-90.463880
5.700000	-0.201511	-118.333527	-53.263331	-49.716994	-53.263331	-49.716994	-0.155103	-91.201054
5.750000	-0.204611	-119.303340	-53.078536	-52.395931	-53.078536	-52.395931	-0.157477	-91.937246
5.800000	-0.207753	-120.273009	-52.894873	-55.071394	-52.894873	-55.071394	-0.159885	-92.672471
5.850000	-0.210938	-121.242587	-52.712295	-57.743800	-52.712295	-57.743800	-0.162328	-93.406743
5.900000	-0.214167	-122.212125	-52.530763	-60.413571	-52.530763	-60.413571	-0.164806	-94.140076
5.950000	-0.217440	-123.181676	-52.350247	-63.081138	-52.350247	-63.081138	-0.167320	-94.872484
6.000000	-0.220757	-124.151292	-52.170728	-65.746930	-52.170728	-65.746930	-0.169870	-95.603983
6.050000	-0.224119	-125.121028	-51.992195	-68.411375	-51.992195	-68.411375	-0.172456	-96.334588
6.100000	-0.227525	-126.090939	-51.814649	-71.074891	-51.814649	-71.074891	-0.175079	-97.064314
6.150000	-0.230976	-127.061079	-51.638096	-73.737884	-51.638096	-73.737884	-0.177739	-97.793178
6.200000	-0.234473	-128.031506	-51.462553	-76.400746	-51.462553	-76.400746	-0.180438	-98.521195
6.250000	-0.238016	-129.002276	-51.288044	-79.063845	-51.288044	-79.063845	-0.183174	-99.248382
6.300000	-0.241606	-129.973467	-51.114503	-81.727566	-51.114503	-81.727566	-0.185950	-99.974721
6.350000	-0.245243	-130.945122	-50.942077	-84.392213	-50.942077	-84.392213	-0.188766	-100.700267
6.400000	-0.248926	-131.917302	-50.770816	-87.058062	-50.770816	-87.058062	-0.191621	-101.425035
6.450000	-0.252655	-132.890066	-50.600775	-89.725356	-50.600775	-89.725356	-0.194516	-102.149045
6.500000	-0.256431	-133.863475	-50.432013	-92.394298	-50.432013	-92.394298	-0.197451	-102.872314
6.550000	-0.260255	-134.837591	-50.264597	-95.065047	-50.264597	-95.065047	-0.200427	-103.594861
6.600000	-0.264125	-135.812475	-50.098597	-97.737717	-50.098597	-97.737717	-0.203444	-104.316704
6.650000	-0.268043	-136.788191	-49.934087	-100.412373	-49.934087	-100.412373	-0.206502	-105.037863
6.700000	-0.272008	-137.764803	-49.771141	-103.089030	-49.771141	-103.089030	-0.209603	-105.758357
6.750000	-0.276021	-138.742375	-49.609841	-105.767654	-49.609841	-105.767654	-0.212746	-106.478205
6.800000	-0.280082	-139.720972	-49.450264	-108.448153	-49.450264	-108.448153	-0.215931	-107.197428
6.850000	-0.284190	-140.700660	-49.292490	-111.130387	-49.292490	-111.130387	-0.219160	-107.916046
6.900000	-0.288346	-141.681506	-49.136599	-113.814157	-49.136599	-113.814157	-0.222432	-108.634079
6.950000	-0.292551	-142.663578	-48.982667	-116.499216	-48.982667	-116.499216	-0.225748	-109.351549
7.000000	-0.296803	-143.646943	-48.830770	-119.185260	-48.830770	-119.185260	-0.229109	-110.068476
7.050000	-0.301104	-144.631671	-48.680979	-121.871940	-48.680979	-121.871940	-0.232514	-110.784882
7.100000	-0.305452	-145.617831	-48.533360	-124.558854	-48.533360	-124.558854	-0.235964	-111.500789
7.150000	-0.309849	-146.605493	-48.387974	-127.245558	-48.387974	-127.245558	-0.239460	-112.216218
7.200000	-0.314294	-147.594728	-48.244877	-129.931566	-48.244877	-129.931566	-0.243001	-112.931193
7.250000	-0.318787	-148.585609	-48.104116	-132.616354	-48.104116	-132.616354	-0.246589	-113.645735
7.300000	-0.323328	-149.578207	-47.965732	-135.299369	-47.965732	-135.299369	-0.250223	-114.359868
7.350000	-0.327917	-150.572595	-47.829755	-137.980027	-47.829755	-137.980027	-0.253905	-115.073616
7.400000	-0.332554	-151.568848	-47.696210	-140.657727	-47.696210	-140.657727	-0.257633	-115.787000
7.450000	-0.337239	-152.567040	-47.565108	-143.331852	-47.565108	-143.331852	-0.261410	-116.500046
7.500000	-0.341972	-153.567246	-47.436453	-146.001776	-47.436453	-146.001776	-0.265234	-117.212777
7.550000	-0.346754	-154.569637	-47.310265	-148.666637	-47.310265	-148.666637	-0.269109	-117.925207
7.600000	-0.351584	-155.574202	-47.186503	-151.326000	-47.186503	-151.326000	-0.273032	-118.637374
7.650000	-0.356461	-156.581017	-47.065136	-153.979266	-47.065136	-153.979266	-0.277005	-119.349302
7.700000	-0.361386	-157.590161	-46.946126	-156.625857	-46.946126	-156.625857	-0.281027	-120.061018
7.750000	-0.366357	-158.601713	-46.829421	-159.265225	-46.829421	-159.265225	-0.285099	-120.772546
7.800000	-0.371375	-159.615751	-46.714961	-161.896863	-46.714961	-161.896863	-0.289221	-121.483913
7.850000	-0.376440	-160.632355	-46.602677	-164.520306	-46.602677	-164.520306	-0.293393	-122.195146
7.900000	-0.381551	-161.651606	-46.492490	-167.135140	-46.492490	-167.135140	-0.297616	-122.906269
7.950000	-0.386708	-162.673586	-46.384314	-169.741010	-46.384314	-169.741010	-0.301890	-123.617311
8.000000	-0.391910	-163.698374	-46.278054	-172.337624	-46.278054	-172.337624	-0.306216	-124.328299
8.050000	-0.397158	-164.726054	-46.173611	-174.924758	-46.173611	-174.924758	-0.310593	-125.039259
8.100000	-0.402451	-165.756708	-46.070878	-177.502261	-46.070878	-177.502261	-0.315022	-125.750220
8.150000	-0.407788	-166.790420	-45.969743	179.929939	-45.969743	179.929939	-0.319504	-126.461209
8.200000	-0.413170	-167.827272	-45.870091	177.371834	-45.870091	177.371834	-0.324038	-127.172256
8.250000	-0.418595	-168.867350	-45.771805	174.823330	-45.771805	174.823330	-0.328624	-127.883387
8.300000	-0.424063	-169.910737	-45.674765	172.284248	-45.674765	172.284248	-0.333264	-128.594634
8.350000	-0.429575	-170.957520	-45.578851	169.754318	-45.578851	169.754318	-0.337957	-129.306024
8.400000	-0.435129	-172.007782	-45.483942	167.233179	-45.483942	167.233179	-0.342704	-130.017587
8.450000	-0.440724	-173.061611	-45.389921	164.720380	-45.389921	164.720380	-0.347504	-130.729353
8.500000	-0.446361	-174.119092	-45.296671	162.215375	-45.296671	162.215375	-0.352359	-131.441353
8.550000	-0.452038	-175.180311	-45.204080	159.717525	-45.204080	159.717525	-0.357267	-132.153616
8.600000	-0.457756	-176.245357	-45.112042	157.226101	-45.112042	157.226101	-0.362231	-132.866174
8.650000	-0.463512	-177.314314	-45.020454	154.740279	-45.020454	154.740279	-0.367249	-133.579058
8.700000	-0.469308	-178.387272	-44.929224	152.259144	-44.929224	152.259144	-0.372322	-134.292298
8.750000	-0.475141	-179.464317	-44.838266	149.781692	-44.838266	149.781692	-0.377450	-135.005928
8.800000	-0.481013	179.454278	-44.747467	147.306884	-44.747467	147.306884	-0.382635	-135.719998
8.850000	-0.486921	178.368603	-44.656795	144.833368	-44.656795	144.833368	-0.387876	-136.434525
8.900000	-0.492865	177.278569	-44.566198	142.359867	-44.566198	142.359867	-0.393173	-137.149541
8.950000	-0.498843	176.184090	-44.475639	139.885025	-44.475639	139.885025	-0.398525	-137.865079
9.000000	-0.504855	175.085078	-44.385095	137.407406	-44.385095	137.407406	-0.403933	-138.581173
9.050000	-0.510899	173.981445	-44.294560	134.925501	-44.294560	134.925501	-0.409398	-139.297856
9.100000	-0.516976	172.873104	-44.204047	132.437734	-44.204047	132.437734	-0.414918	-140.015163
9.150000	-0.523083	171.759969	-44.113586	129.942464	-44.113586	129.942464	-0.420495	-140.733129
9.200000	-0.529220	170.641952	-44.023232	127.437993	-44.023232	127.437993	-0.426127	-141.451786
9.250000	-0.535385	169.518966	-43.933059	124.922577	-43.933059	124.922577	-0.431817	-142.171173
9.300000	-0.541578	168.390927	-43.843167	122.394430	-43.843167	122.394430	-0.437562	-142.891322
9.350000	-0.547797	167.257749	-43.753684	119.851736	-43.753684	119.851736	-0.443365	-143.612271
9.400000	-0.554041	166.119347	-43.664763	117.292666	-43.664763	117.292666	-0.449223	-144.334056
9.450000	-0.560308	164.975637	-43.576589	114.715385	-43.576589	114.715385	-0.455139	-145.056713
9.500000	-0.566599	163.826536	-43.489378	112.118074	-43.489378	112.118074	-0.461110	-145.780279
9.550000	-0.572910	162.671961	-43.403378	109.498949	-43.403378	109.498949	-0.467138	-146.504791
9.600000	-0.579240	161.511830	-43.318873	106.856281	-43.318873	106.856281	-0.473223	-147.230288
9.650000	-0.585589	160.346064	-43.236182	104.188421	-43.236182	104.188421	-0.479364	-147.956807
9.700000	-0.591955	159.174582	-43.155662	101.493828	-43.155662	101.493828	-0.485561	-148.684386
9.750000	-0.598335	157.997307	-43.077706	98.771103	-43.077706	98.771103	-0.491815	-149.413064
9.800000	-0.604729	156.814162	-43.002745	96.019018	-43.002745	96.019018	-0.498124	-150.142881
9.850000	-0.611135	155.625071	-42.931247	93.236556	-42.931247	93.236556	-0.504490	-150.873877
9.900000	-0.617550	154.429961	-42.863714	90.422948	-42.863714	90.422948	-0.510911	-151.606090
9.950000	-0.623974	153.228759	-42.800683	87.577715	-42.800683	87.577715	-0.517388	-152.339561
10.000000	-0.630405	152.021396	-42.742719	84.700709	-42.742719	84.700709	-0.523921	-153.074331
