! freq	dB(S11)	phase(S11)	dB(S12)	phase(S12)	
!     	dB(S21)	phase(S21)	dB(S22)	phase(S22)	
!S-par simulation data
#  GHz  S  DB  R 50
0.000000	-0.000000	0.000000	-341.924903	180.000000	-341.924903	180.000000	-0.000000	0.000000
0.050000	-0.000512	-0.770465	-113.147507	89.506046	-113.147507	89.506046	-0.000610	-0.976989
0.100000	-0.001681	-1.536900	-107.191596	88.500991	-107.191596	88.500991	-0.002072	-1.949613
0.150000	-0.002965	-2.299128	-103.742591	87.583428	-103.742591	87.583428	-0.003788	-2.917228
0.200000	-0.004111	-3.058710	-101.346801	86.735971	-101.346801	86.735971	-0.005402	-3.881312
0.250000	-0.005132	-3.817229	-99.529443	85.941139	-99.529443	85.941139	-0.006868	-4.843847
0.300000	-0.006054	-4.575165	-98.098683	85.212058	-98.098683	85.212058	-0.008184	-5.805486
0.350000	-0.006933	-5.332859	-96.939416	84.551973	-96.939416	84.551973	-0.009407	-6.766748
0.400000	-0.007801	-6.090401	-95.993400	83.978372	-95.993400	83.978372	-0.010567	-7.727763
0.450000	-0.008692	-6.847772	-95.251948	83.551388	-95.251948	83.551388	-0.011689	-8.688438
0.500000	-0.009592	-7.605090	-94.599706	83.172634	-94.599706	83.172634	-0.012808	-9.648991
0.550000	-0.010526	-8.362209	-94.099858	82.978514	-94.099858	82.978514	-0.013919	-10.609063
0.600000	-0.011484	-9.119132	-93.712594	82.963186	-93.712594	82.963186	-0.015032	-11.568646
0.650000	-0.012460	-9.875813	-93.429319	83.166563	-93.429319	83.166563	-0.016152	-12.527645
0.700000	-0.013447	-10.632193	-93.244186	83.639624	-93.244186	83.639624	-0.017280	-13.485969
0.750000	-0.014437	-11.388174	-93.158746	84.474057	-93.158746	84.474057	-0.018417	-14.443482
0.800000	-0.015424	-12.143667	-93.168863	85.770104	-93.168863	85.770104	-0.019565	-15.400102
0.850000	-0.016403	-12.898595	-93.267507	87.650795	-93.267507	87.650795	-0.020722	-16.355776
0.900000	-0.017373	-13.652927	-93.441789	90.222545	-93.441789	90.222545	-0.021887	-17.310511
0.950000	-0.018334	-14.406562	-93.683165	93.720640	-93.683165	93.720640	-0.023060	-18.264197
1.000000	-0.019288	-15.159443	-93.965393	98.387863	-93.965393	98.387863	-0.024239	-19.216781
1.050000	-0.020236	-15.911525	-94.241049	104.477130	-94.241049	104.477130	-0.025425	-20.168215
1.100000	-0.021180	-16.662777	-94.432906	112.166514	-94.432906	112.166514	-0.026616	-21.118457
1.150000	-0.022123	-17.413174	-94.434678	121.398879	-94.434678	121.398879	-0.027811	-22.067468
1.200000	-0.023066	-18.162700	-94.137036	131.698633	-94.137036	131.698633	-0.029009	-23.015210
1.250000	-0.024010	-18.911346	-93.480707	142.161434	-93.480707	142.161434	-0.030209	-23.961652
1.300000	-0.024958	-19.659064	-92.479578	151.723018	-92.479578	151.723018	-0.031411	-24.906702
1.350000	-0.025907	-20.405887	-91.254231	159.783709	-91.254231	159.783709	-0.032614	-25.850389
1.400000	-0.026860	-21.151810	-89.915019	166.211071	-89.915019	166.211071	-0.033817	-26.792685
1.450000	-0.027816	-21.896827	-88.544508	171.153783	-88.544508	171.153783	-0.035020	-27.733567
1.500000	-0.028774	-22.640934	-87.192976	174.861454	-87.192976	174.861454	-0.036222	-28.673008
1.550000	-0.029734	-23.384123	-85.886686	177.584182	-85.886686	177.584182	-0.037424	-29.610987
1.600000	-0.030696	-24.126390	-84.637093	179.534453	-84.637093	179.534453	-0.038625	-30.547481
1.650000	-0.031660	-24.867727	-83.447422	-179.119444	-83.447422	-179.119444	-0.039824	-31.482469
1.700000	-0.032625	-25.608126	-82.316663	-178.248143	-82.316663	-178.248143	-0.041023	-32.415929
1.750000	-0.033591	-26.347579	-81.241804	-177.753171	-81.241804	-177.753171	-0.042220	-33.347843
1.800000	-0.034558	-27.086077	-80.219035	-177.559527	-80.219035	-177.559527	-0.043416	-34.278190
1.850000	-0.035526	-27.823610	-79.244364	-177.609748	-79.244364	-177.609748	-0.044611	-35.206951
1.900000	-0.036494	-28.560170	-78.313929	-177.859416	-78.313929	-177.859416	-0.045806	-36.134108
1.950000	-0.037463	-29.295745	-77.424127	-178.273859	-77.424127	-178.273859	-0.047000	-37.059643
2.000000	-0.038433	-30.030325	-76.571669	-178.825730	-76.571669	-178.825730	-0.048194	-37.983539
2.050000	-0.039403	-30.763900	-75.753586	-179.493238	-75.753586	-179.493238	-0.049388	-38.905776
2.100000	-0.040375	-31.496457	-74.967209	179.741155	-74.967209	179.741155	-0.050583	-39.826340
2.150000	-0.041347	-32.227986	-74.210147	178.891696	-74.210147	178.891696	-0.051779	-40.745213
2.200000	-0.042320	-32.958476	-73.480255	177.970065	-73.480255	177.970065	-0.052976	-41.662379
2.250000	-0.043295	-33.687914	-72.775614	176.985916	-72.775614	176.985916	-0.054175	-42.577822
2.300000	-0.044271	-34.416290	-72.094495	175.947295	-72.094495	175.947295	-0.055376	-43.491528
2.350000	-0.045250	-35.143590	-71.435345	174.860954	-71.435345	174.860954	-0.056580	-44.403480
2.400000	-0.046230	-35.869804	-70.796759	173.732602	-70.796759	173.732602	-0.057787	-45.313665
2.450000	-0.047214	-36.594919	-70.177468	172.567093	-70.177468	172.567093	-0.058997	-46.222069
2.500000	-0.048200	-37.318924	-69.576320	171.368587	-69.576320	171.368587	-0.060212	-47.128677
2.550000	-0.049189	-38.041757	-68.991306	170.139526	-68.991306	170.139526	-0.061432	-48.033398
2.600000	-0.050183	-38.763455	-68.422532	168.884385	-68.422532	168.884385	-0.062657	-48.936297
2.650000	-0.051180	-39.484008	-67.869111	167.605812	-67.869111	167.605812	-0.063887	-49.837362
2.700000	-0.052182	-40.203402	-67.330231	166.306124	-67.330231	166.306124	-0.065124	-50.736582
2.750000	-0.053188	-40.921627	-66.805146	164.987363	-66.805146	164.987363	-0.066367	-51.633944
2.800000	-0.054200	-41.638672	-66.293170	163.651330	-66.293170	163.651330	-0.067618	-52.529440
2.850000	-0.055218	-42.354526	-65.793667	162.299621	-65.793667	162.299621	-0.068876	-53.423058
2.900000	-0.056241	-43.069177	-65.306052	160.933658	-65.306052	160.933658	-0.070142	-54.314789
2.950000	-0.057271	-43.782616	-64.829781	159.554709	-64.829781	159.554709	-0.071417	-55.204625
3.000000	-0.058308	-44.494832	-64.364350	158.163912	-64.364350	158.163912	-0.072701	-56.092558
3.050000	-0.059351	-45.205815	-63.909287	156.762288	-63.909287	156.762288	-0.073994	-56.978579
3.100000	-0.060403	-45.915554	-63.464155	155.350759	-63.464155	155.350759	-0.075298	-57.862682
3.150000	-0.061462	-46.624041	-63.028544	153.930159	-63.028544	153.930159	-0.076612	-58.744861
3.200000	-0.062530	-47.331266	-62.602072	152.501241	-62.602072	152.501241	-0.077937	-59.625109
3.250000	-0.063606	-48.037220	-62.184379	151.064694	-62.184379	151.064694	-0.079274	-60.503421
3.300000	-0.064692	-48.741893	-61.775127	149.621143	-61.775127	149.621143	-0.080623	-61.379793
3.350000	-0.065787	-49.445278	-61.374001	148.171160	-61.374001	148.171160	-0.081984	-62.254221
3.400000	-0.066892	-50.147366	-60.980701	146.715267	-60.980701	146.715267	-0.083358	-63.126701
3.450000	-0.068007	-50.848149	-60.594946	145.253945	-60.594946	145.253945	-0.084745	-63.997232
3.500000	-0.069133	-51.547620	-60.216470	143.787635	-60.216470	143.787635	-0.086146	-64.865810
3.550000	-0.070270	-52.245771	-59.845023	142.316745	-59.845023	142.316745	-0.087562	-65.732435
3.600000	-0.071419	-52.942595	-59.480365	140.841649	-59.480365	140.841649	-0.088992	-66.597106
3.650000	-0.072579	-53.638085	-59.122273	139.362695	-59.122273	139.362695	-0.090438	-67.459823
3.700000	-0.073751	-54.332235	-58.770531	137.880205	-58.770531	137.880205	-0.091899	-68.320586
3.750000	-0.074936	-55.025039	-58.424938	136.394476	-58.424938	136.394476	-0.093377	-69.179398
3.800000	-0.076135	-55.716432	-58.084982	134.905669	-58.084982	134.905669	-0.094872	-70.036174
3.850000	-0.077347	-56.406467	-57.750820	133.414180	-57.750820	133.414180	-0.096384	-70.891002
3.900000	-0.078572	-57.095139	-57.422275	131.920248	-57.422275	131.920248	-0.097914	-71.743887
3.950000	-0.079811	-57.782443	-57.099178	130.424095	-57.099178	130.424095	-0.099461	-72.594831
4.000000	-0.081065	-58.468375	-56.781368	128.925929	-56.781368	128.925929	-0.101028	-73.443839
4.050000	-0.082334	-59.152931	-56.468692	127.425944	-56.468692	127.425944	-0.102613	-74.290916
4.100000	-0.083618	-59.836107	-56.161003	125.924323	-56.161003	125.924323	-0.104218	-75.136069
4.150000	-0.084917	-60.517900	-55.858160	124.421237	-55.858160	124.421237	-0.105843	-75.979303
4.200000	-0.086232	-61.198306	-55.560028	122.916846	-55.560028	122.916846	-0.107488	-76.820626
4.250000	-0.087563	-61.877323	-55.266478	121.411302	-55.266478	121.411302	-0.109155	-77.660046
4.300000	-0.088911	-62.554948	-54.977387	119.904747	-54.977387	119.904747	-0.110842	-78.497570
4.350000	-0.090276	-63.231180	-54.692634	118.397315	-54.692634	118.397315	-0.112552	-79.333208
4.400000	-0.091658	-63.906017	-54.412106	116.889133	-54.412106	116.889133	-0.114283	-80.166969
4.450000	-0.093058	-64.579456	-54.135693	115.380321	-54.135693	115.380321	-0.116038	-80.998863
4.500000	-0.094476	-65.251498	-53.863288	113.870990	-53.863288	113.870990	-0.117816	-81.828901
4.550000	-0.095912	-65.922141	-53.594790	112.361249	-53.594790	112.361249	-0.119618	-82.657095
4.600000	-0.097367	-66.591385	-53.330099	110.851198	-53.330099	110.851198	-0.121443	-83.483455
4.650000	-0.098841	-67.259230	-53.069122	109.340934	-53.069122	109.340934	-0.123294	-84.307996
4.700000	-0.100334	-67.925676	-52.811765	107.830549	-52.811765	107.830549	-0.125169	-85.130729
4.750000	-0.101848	-68.590724	-52.557940	106.320128	-52.557940	106.320128	-0.127071	-85.951669
4.800000	-0.103381	-69.254374	-52.307561	104.809756	-52.307561	104.809756	-0.128998	-86.770829
4.850000	-0.104935	-69.916629	-52.060544	103.299511	-52.060544	103.299511	-0.130952	-87.588226
4.900000	-0.106510	-70.577489	-51.816808	101.789468	-51.816808	101.789468	-0.132933	-88.403873
4.950000	-0.108106	-71.236958	-51.576275	100.279701	-51.576275	100.279701	-0.134941	-89.217787
5.000000	-0.109724	-71.895036	-51.338868	98.770278	-51.338868	98.770278	-0.136978	-90.029984
5.050000	-0.111377	-72.550945	-51.102667	97.261538	-51.102667	97.261538	-0.139059	-90.839532
5.100000	-0.113029	-73.206854	-50.872720	95.752798	-50.872720	95.752798	-0.141140	-91.649080
5.150000	-0.114726	-73.860123	-50.642777	94.245101	-50.642777	94.245101	-0.143277	-92.455450
5.200000	-0.116426	-74.513151	-50.418240	92.737499	-50.418240	92.737499	-0.145420	-93.261531
5.250000	-0.118167	-75.163795	-50.194236	91.231060	-50.194236	91.231060	-0.147615	-94.064792
5.300000	-0.119916	-75.813962	-49.974864	89.724854	-49.974864	89.724854	-0.149821	-94.867489
5.350000	-0.121704	-76.461999	-49.756492	88.219879	-49.756492	88.219879	-0.152076	-95.667715
5.400000	-0.123504	-77.109326	-49.542042	86.715315	-49.542042	86.715315	-0.154347	-96.467117
5.450000	-0.125339	-77.754778	-49.329002	85.212004	-49.329002	85.212004	-0.156663	-97.264383
5.500000	-0.127191	-78.399291	-49.119227	83.709319	-49.119227	83.709319	-0.159001	-98.060582
5.550000	-0.129075	-79.042182	-48.911221	82.207868	-48.911221	82.207868	-0.161379	-98.854970
5.600000	-0.130981	-79.683914	-48.705863	80.707298	-48.705863	80.707298	-0.163787	-99.648063
5.650000	-0.132915	-80.324273	-48.502590	79.207905	-48.502590	79.207905	-0.166229	-100.439655
5.700000	-0.134877	-80.963261	-48.301369	77.709687	-48.301369	77.709687	-0.168707	-101.229745
5.750000	-0.136863	-81.601125	-48.102513	76.212551	-48.102513	76.212551	-0.171215	-102.018628
5.800000	-0.138882	-82.237415	-47.905111	74.716928	-47.905111	74.716928	-0.173765	-102.805821
5.850000	-0.140921	-82.872826	-47.710328	73.222254	-47.710328	73.222254	-0.176340	-103.592086
5.900000	-0.142998	-83.506477	-47.516361	71.729477	-47.516361	71.729477	-0.178964	-104.376492
5.950000	-0.145092	-84.139488	-47.325256	70.237473	-47.325256	70.237473	-0.181607	-105.160231
6.000000	-0.147230	-84.770578	-47.134227	68.747790	-47.134227	68.747790	-0.184306	-105.941966
6.050000	-0.149379	-85.401258	-46.946317	67.258655	-46.946317	67.258655	-0.187019	-106.723276
6.100000	-0.151581	-86.029891	-46.757527	65.772269	-46.757527	65.772269	-0.189794	-107.502456
6.150000	-0.153788	-86.658333	-46.572181	64.286159	-46.572181	64.286159	-0.192576	-108.281434
6.200000	-0.156055	-87.284671	-46.384547	62.803087	-46.384547	62.803087	-0.195427	-109.058180
6.250000	-0.158324	-87.911009	-46.200881	61.320015	-46.200881	61.320015	-0.198279	-109.834926
6.300000	-0.160664	-88.535318	-46.012536	59.839598	-46.012536	59.839598	-0.201204	-110.609356
6.350000	-0.163006	-89.159627	-45.828188	58.359181	-45.828188	58.359181	-0.204131	-111.383786
6.400000	-0.165429	-89.782539	-45.636513	56.878278	-45.636513	56.878278	-0.207121	-112.156196
6.450000	-0.167861	-90.405324	-45.447985	55.397330	-45.447985	55.397330	-0.210118	-112.928423
6.500000	-0.170417	-91.027783	-45.246052	53.904197	-45.246052	53.904197	-0.213160	-113.698892
6.550000	-0.172999	-91.650178	-45.045309	52.408628	-45.045309	52.408628	-0.216211	-114.469011
6.600000	-0.175912	-92.274653	-44.814743	50.844129	-44.814743	50.844129	-0.219263	-115.237606
6.650000	-0.178935	-92.899821	-44.579008	49.256653	-44.579008	49.256653	-0.222316	-116.005693
6.700000	-0.182632	-93.529147	-44.306169	47.497753	-44.306169	47.497753	-0.225304	-116.772957
6.750000	-0.188608	-94.167255	-43.954868	45.125724	-43.954868	45.125724	-0.228076	-117.539640
6.800000	-0.201279	-94.803412	-43.573950	40.861510	-43.573950	40.861510	-0.230469	-118.308978
6.850000	-0.219899	-95.323738	-43.881676	33.917570	-43.881676	33.917570	-0.233810	-119.087572
6.900000	-0.212234	-95.818882	-44.669198	34.467425	-44.669198	34.467425	-0.239094	-119.854964
6.950000	-0.205309	-96.425327	-44.617418	36.273287	-44.617418	36.273287	-0.243246	-120.614636
7.000000	-0.204416	-97.044645	-44.389743	36.164930	-44.389743	36.164930	-0.246894	-121.375264
7.050000	-0.204504	-97.661382	-44.172806	35.712136	-44.172806	35.712136	-0.250523	-122.136107
7.100000	-0.206226	-98.273818	-43.969169	34.685281	-43.969169	34.685281	-0.254120	-122.897306
7.150000	-0.208407	-98.882891	-43.781471	33.504759	-43.781471	33.504759	-0.257760	-123.658337
7.200000	-0.210849	-99.490064	-43.603988	32.237382	-43.603988	32.237382	-0.261424	-124.419274
7.250000	-0.213567	-100.093980	-43.438072	30.891389	-43.438072	30.891389	-0.265161	-125.179815
7.300000	-0.216345	-100.697079	-43.276859	29.530483	-43.276859	29.530483	-0.268920	-125.940242
7.350000	-0.219271	-101.297843	-43.122245	28.137345	-43.122245	28.137345	-0.272747	-126.700319
7.400000	-0.222252	-101.897582	-42.971278	26.735877	-42.971278	26.735877	-0.276610	-127.460250
7.450000	-0.225306	-102.495966	-42.824117	25.323391	-42.824117	25.323391	-0.280520	-128.219989
7.500000	-0.228432	-103.092869	-42.680093	23.903760	-42.680093	23.903760	-0.284487	-128.979574
7.550000	-0.231592	-103.689121	-42.538715	22.480985	-42.538715	22.480985	-0.288481	-129.739091
7.600000	-0.234841	-104.283485	-42.399907	21.052909	-42.399907	21.052909	-0.292553	-130.498519
7.650000	-0.238114	-104.877356	-42.263279	19.623978	-42.263279	19.623978	-0.296648	-131.257953
7.700000	-0.241455	-105.469786	-42.128713	18.192861	-42.128713	18.192861	-0.300807	-132.017424
7.750000	-0.244837	-106.061359	-41.996055	16.761187	-41.996055	16.761187	-0.305008	-132.776990
7.800000	-0.248263	-106.652027	-41.865239	15.328923	-41.865239	15.328923	-0.309251	-133.536656
7.850000	-0.251751	-107.241431	-41.736037	13.896600	-41.736037	13.896600	-0.313558	-134.296584
7.900000	-0.255262	-107.830391	-41.608614	12.464267	-41.608614	12.464267	-0.317888	-135.056606
7.950000	-0.258853	-108.417755	-41.482527	11.032564	-41.482527	11.032564	-0.322300	-135.817130
8.000000	-0.262467	-109.004686	-41.358087	9.601175	-41.358087	9.601175	-0.326737	-136.577843
8.050000	-0.266141	-109.590492	-41.235005	8.170606	-41.235005	8.170606	-0.331235	-137.339043
8.100000	-0.269859	-110.175485	-41.113329	6.740843	-41.113329	6.740843	-0.335779	-138.100704
8.150000	-0.273614	-110.759789	-40.993071	5.311761	-40.993071	5.311761	-0.340364	-138.862753
8.200000	-0.277436	-111.342929	-40.873989	3.884081	-40.873989	3.884081	-0.345017	-139.625629
8.250000	-0.281280	-111.925691	-40.756365	2.456873	-40.756365	2.456873	-0.349695	-140.388789
8.300000	-0.285200	-112.507157	-40.639781	1.031459	-40.639781	1.031459	-0.354452	-141.153076
8.350000	-0.289151	-113.088132	-40.524536	-0.393197	-40.524536	-0.393197	-0.359242	-141.917882
8.400000	-0.293163	-113.668127	-40.410393	-1.816334	-40.410393	-1.816334	-0.364095	-142.683725
8.450000	-0.297201	-114.247738	-40.297569	-3.238819	-40.297569	-3.238819	-0.368977	-143.450060
8.500000	-0.301313	-114.826200	-40.185713	-4.659346	-40.185713	-4.659346	-0.373937	-144.217871
8.550000	-0.305443	-115.404418	-40.075178	-6.079421	-40.075178	-6.079421	-0.378916	-144.986059
8.600000	-0.309657	-115.981421	-39.965527	-7.497246	-39.965527	-7.497246	-0.383983	-145.756134
8.650000	-0.313880	-116.558308	-39.857195	-8.914840	-39.857195	-8.914840	-0.389061	-146.526424
8.700000	-0.318196	-117.133928	-39.749677	-10.329908	-39.749677	-10.329908	-0.394236	-147.299073
8.750000	-0.322513	-117.709547	-39.643474	-11.744976	-39.643474	-11.744976	-0.399413	-148.071721
8.800000	-0.326931	-118.283859	-39.538023	-13.157262	-39.538023	-13.157262	-0.404697	-148.847267
8.850000	-0.331352	-118.858171	-39.433838	-14.569548	-39.433838	-14.569548	-0.409984	-149.622812
8.900000	-0.335865	-119.431354	-39.330438	-15.979281	-39.330438	-15.979281	-0.415370	-150.401320
8.950000	-0.340389	-120.004435	-39.228214	-17.388783	-39.228214	-17.388783	-0.420768	-151.180098
9.000000	-0.344998	-120.576555	-39.126806	-18.795979	-39.126806	-18.795979	-0.426257	-151.961862
9.050000	-0.349627	-121.148483	-39.026494	-20.202714	-39.026494	-20.202714	-0.431767	-152.744224
9.100000	-0.354332	-121.719605	-38.927022	-21.607399	-38.927022	-21.607399	-0.437360	-153.529549
9.150000	-0.359065	-122.290458	-38.828576	-23.011401	-38.828576	-23.011401	-0.442983	-154.315861
9.200000	-0.363868	-122.860649	-38.730990	-24.413615	-38.730990	-24.413615	-0.448683	-155.105063
9.250000	-0.368706	-123.430509	-38.634367	-25.814934	-38.634367	-25.814934	-0.454422	-155.895709
9.300000	-0.373606	-123.999836	-38.538620	-27.214723	-38.538620	-27.214723	-0.460228	-156.689117
9.350000	-0.378550	-124.568782	-38.443783	-28.613421	-38.443783	-28.613421	-0.466085	-157.484497
9.400000	-0.383548	-125.137314	-38.349831	-30.010845	-38.349831	-30.010845	-0.472001	-158.282454
9.450000	-0.388598	-125.705432	-38.256747	-31.406996	-38.256747	-31.406996	-0.477978	-159.082988
9.500000	-0.393693	-126.273238	-38.164551	-32.802121	-38.164551	-32.802121	-0.484006	-159.885851
9.550000	-0.398850	-126.840610	-38.073187	-34.195809	-38.073187	-34.195809	-0.490104	-160.691977
9.600000	-0.404044	-127.407762	-37.982711	-35.588708	-37.982711	-35.588708	-0.496246	-161.500119
9.650000	-0.409307	-127.974475	-37.893041	-36.980029	-37.893041	-36.980029	-0.502470	-162.312295
9.700000	-0.414599	-128.541045	-37.804251	-38.370783	-37.804251	-38.370783	-0.508729	-163.126105
9.750000	-0.419969	-129.107186	-37.716251	-39.759837	-37.716251	-39.759837	-0.515082	-163.944813
9.800000	-0.425359	-129.673247	-37.629117	-41.148533	-37.629117	-41.148533	-0.521460	-164.764694
9.850000	-0.430835	-130.238907	-37.542766	-42.535432	-37.542766	-42.535432	-0.527945	-165.590439
9.900000	-0.436323	-130.804534	-37.457261	-43.922161	-37.457261	-43.922161	-0.534446	-166.416814
9.950000	-0.441906	-131.369802	-37.372543	-45.307021	-37.372543	-45.307021	-0.541068	-167.250125
10.000000	-0.447492	-131.935071	-37.288642	-46.691880	-37.288642	-46.691880	-0.547695	-168.083435
