! freq	dB(S11)	phase(S11)	dB(S12)	phase(S12)	
!     	dB(S21)	phase(S21)	dB(S22)	phase(S22)	
!S-par simulation data
#  GHz  S  DB  R 50
0.000000	-0.000000	-0.000000	-420.232984	180.000000	-420.232984	180.000000	0.000000	0.000000
0.050000	-0.000127	-0.763730	-82.366819	161.551943	-82.366819	161.551943	-0.000181	-1.073866
0.100000	-0.000505	-1.527081	-82.082942	170.233644	-82.082942	170.233644	-0.000718	-2.147183
0.150000	-0.001100	-2.289754	-82.093086	173.228407	-82.093086	173.228407	-0.001563	-3.219516
0.200000	-0.001897	-3.051390	-82.182178	174.554920	-82.182178	174.554920	-0.002694	-4.290345
0.250000	-0.002828	-3.812009	-82.311138	175.283401	-82.311138	175.283401	-0.004012	-5.359700
0.300000	-0.003867	-4.571457	-82.476610	175.635819	-82.476610	175.635819	-0.005483	-6.427355
0.350000	-0.004979	-5.329721	-82.676162	175.742592	-82.676162	175.742592	-0.007056	-7.493291
0.400000	-0.006133	-6.086839	-82.909120	175.663564	-82.909120	175.663564	-0.008686	-8.557557
0.450000	-0.007306	-6.842815	-83.177164	175.417657	-83.177164	175.417657	-0.010341	-9.620153
0.500000	-0.008477	-7.597780	-83.479825	175.022148	-83.479825	175.022148	-0.011994	-10.681260
0.550000	-0.009636	-8.351855	-83.817152	174.483487	-83.817152	174.483487	-0.013627	-11.741048
0.600000	-0.010775	-9.105122	-84.190367	173.797600	-84.190367	173.797600	-0.015232	-12.799625
0.650000	-0.011892	-9.857650	-84.601056	172.956020	-84.601056	172.956020	-0.016804	-13.857085
0.700000	-0.012985	-10.609500	-85.051220	171.946192	-85.051220	171.946192	-0.018343	-14.913507
0.750000	-0.014054	-11.360717	-85.543342	170.751203	-85.543342	170.751203	-0.019848	-15.968950
0.800000	-0.015102	-12.111338	-86.080472	169.348992	-86.080472	169.348992	-0.021322	-17.023459
0.850000	-0.016129	-12.861369	-86.666639	167.702107	-86.666639	167.702107	-0.022767	-18.077034
0.900000	-0.017137	-13.610812	-87.306308	165.758692	-87.306308	165.758692	-0.024186	-19.129668
0.950000	-0.018132	-14.359711	-88.003872	163.481670	-88.003872	163.481670	-0.025585	-20.181426
1.000000	-0.019114	-15.108069	-88.765288	160.800381	-88.765288	160.800381	-0.026967	-21.232307
1.050000	-0.020085	-15.855884	-89.597140	157.618398	-89.597140	157.618398	-0.028334	-22.282305
1.100000	-0.021049	-16.603152	-90.506070	153.802200	-90.506070	153.802200	-0.029689	-23.331409
1.150000	-0.022007	-17.349865	-91.497339	149.164844	-91.497339	149.164844	-0.031036	-24.379606
1.200000	-0.022959	-18.096013	-92.571442	143.443897	-92.571442	143.443897	-0.032375	-25.426879
1.250000	-0.023908	-18.841586	-93.716720	136.276944	-93.716720	136.276944	-0.033708	-26.473211
1.300000	-0.024854	-19.586512	-94.873878	126.956822	-94.873878	126.956822	-0.035037	-27.518487
1.350000	-0.025799	-20.330835	-95.946902	115.147534	-95.946902	115.147534	-0.036364	-28.562778
1.400000	-0.026743	-21.074541	-96.755632	100.723609	-96.755632	100.723609	-0.037690	-29.606065
1.450000	-0.027687	-21.817616	-97.085542	84.433278	-97.085542	84.433278	-0.039015	-30.648328
1.500000	-0.028631	-22.560047	-96.825759	67.963112	-96.825759	67.963112	-0.040341	-31.689546
1.550000	-0.029576	-23.301819	-96.068492	53.054780	-96.068492	53.054780	-0.041667	-32.729700
1.600000	-0.030523	-24.042918	-95.024540	40.557587	-95.024540	40.557587	-0.042995	-33.768771
1.650000	-0.031471	-24.783331	-93.880199	30.408649	-93.880199	30.408649	-0.044324	-34.806740
1.700000	-0.032421	-25.522998	-92.740073	22.228954	-92.740073	22.228954	-0.045656	-35.843517
1.750000	-0.033373	-26.261926	-91.661471	15.416798	-91.661471	15.416798	-0.046991	-36.879118
1.800000	-0.034327	-27.000125	-90.661373	9.539001	-90.661373	9.539001	-0.048328	-37.913564
1.850000	-0.035283	-27.737583	-89.739281	4.322848	-89.739281	4.322848	-0.049669	-38.946839
1.900000	-0.036242	-28.474286	-88.889422	-0.426855	-88.889422	-0.426855	-0.051013	-39.978929
1.950000	-0.037203	-29.210223	-88.104389	-4.850312	-88.104389	-4.850312	-0.052362	-41.009819
2.000000	-0.038168	-29.945380	-87.376704	-9.049579	-87.376704	-9.049579	-0.053714	-42.039497
2.050000	-0.039135	-30.679747	-86.699433	-13.100272	-86.699433	-13.100272	-0.055070	-43.067950
2.100000	-0.040105	-31.413285	-86.066227	-17.058088	-86.066227	-17.058088	-0.056431	-44.095126
2.150000	-0.041078	-32.145956	-85.471497	-20.969663	-85.471497	-20.969663	-0.057798	-45.120974
2.200000	-0.042055	-32.877799	-84.910706	-24.873286	-84.910706	-24.873286	-0.059169	-46.145563
2.250000	-0.043035	-33.608806	-84.379597	-28.795534	-84.379597	-28.795534	-0.060546	-47.168885
2.300000	-0.044019	-34.338963	-83.874427	-32.758218	-83.874427	-32.758218	-0.061930	-48.190931
2.350000	-0.045006	-35.068263	-83.391880	-36.779496	-83.391880	-36.779496	-0.063319	-49.211694
2.400000	-0.045998	-35.796693	-82.928994	-40.874643	-82.928994	-40.874643	-0.064715	-50.231167
2.450000	-0.046994	-36.524244	-82.483106	-45.056602	-82.483106	-45.056602	-0.066118	-51.249344
2.500000	-0.047994	-37.250907	-82.051801	-49.336366	-82.051801	-49.336366	-0.067529	-52.266220
2.550000	-0.048999	-37.976584	-81.631974	-53.734352	-81.631974	-53.734352	-0.068948	-53.281665
2.600000	-0.050009	-38.701352	-81.222351	-58.248338	-81.222351	-58.248338	-0.070376	-54.295800
2.650000	-0.051025	-39.425202	-80.821075	-62.884341	-80.821075	-62.884341	-0.071812	-55.308624
2.700000	-0.052046	-40.148125	-80.426449	-67.647010	-80.426449	-67.647010	-0.073259	-56.320133
2.750000	-0.053072	-40.870112	-80.036925	-72.539637	-80.036925	-72.539637	-0.074715	-57.330328
2.800000	-0.054105	-41.591154	-79.651111	-77.564142	-79.651111	-77.564142	-0.076181	-58.339208
2.850000	-0.055144	-42.311245	-79.267769	-82.721062	-79.267769	-82.721062	-0.077658	-59.346773
2.900000	-0.056191	-43.030250	-78.883741	-88.026260	-78.883741	-88.026260	-0.079149	-60.352855
2.950000	-0.057244	-43.748330	-78.500789	-93.453852	-78.500789	-93.453852	-0.080651	-61.357687
3.000000	-0.058304	-44.465458	-78.117999	-99.003010	-78.117999	-99.003010	-0.082165	-62.361244
3.050000	-0.059372	-45.181626	-77.734945	-104.669036	-77.734945	-104.669036	-0.083692	-63.363530
3.100000	-0.060448	-45.896829	-77.351366	-110.446238	-77.351366	-110.446238	-0.085233	-64.364547
3.150000	-0.061533	-46.610945	-76.965060	-116.338892	-76.965060	-116.338892	-0.086789	-65.364154
3.200000	-0.062627	-47.323964	-76.576150	-122.335308	-76.576150	-122.335308	-0.088361	-66.362358
3.250000	-0.063730	-48.035996	-76.187139	-128.414229	-76.187139	-128.414229	-0.089949	-67.359314
3.300000	-0.064843	-48.747034	-75.798574	-134.566092	-75.798574	-134.566092	-0.091553	-68.355030
3.350000	-0.065965	-49.457073	-75.411105	-140.780983	-75.411105	-140.780983	-0.093173	-69.349513
3.400000	-0.067097	-50.166109	-75.025460	-147.048742	-75.025460	-147.048742	-0.094810	-70.342772
3.450000	-0.068240	-50.874075	-74.641652	-153.360744	-74.641652	-153.360744	-0.096466	-71.334745
3.500000	-0.069395	-51.580846	-74.259398	-159.706221	-74.259398	-159.706221	-0.098143	-72.325306
3.550000	-0.070562	-52.286596	-73.882140	-166.068049	-73.882140	-166.068049	-0.099839	-73.314679
3.600000	-0.071740	-52.991320	-73.510711	-172.436943	-73.510711	-172.436943	-0.101555	-74.302876
3.650000	-0.072930	-53.695014	-73.145864	-178.804163	-73.145864	-178.804163	-0.103290	-75.289910
3.700000	-0.074132	-54.397674	-72.788252	174.838416	-72.788252	174.838416	-0.105047	-76.275794
3.750000	-0.075346	-55.099296	-72.438431	168.498235	-72.438431	168.498235	-0.106824	-77.260542
3.800000	-0.076577	-55.799631	-72.095882	162.189534	-72.095882	162.189534	-0.108629	-78.243909
3.850000	-0.077821	-56.498920	-71.762373	155.912942	-71.762373	155.912942	-0.110456	-79.226180
3.900000	-0.079079	-57.197159	-71.437984	149.672218	-71.437984	149.672218	-0.112306	-80.207370
3.950000	-0.080351	-57.894346	-71.122680	143.470200	-71.122680	143.470200	-0.114180	-81.187496
4.000000	-0.081638	-58.590478	-70.816325	137.308813	-70.816325	137.308813	-0.116078	-82.166577
4.050000	-0.082940	-59.285554	-70.518693	131.189077	-70.518693	131.189077	-0.118001	-83.144631
4.100000	-0.084259	-59.979383	-70.229241	125.118140	-70.229241	125.118140	-0.119954	-84.121504
4.150000	-0.085595	-60.672087	-69.947737	119.089308	-69.947737	119.089308	-0.121935	-85.097342
4.200000	-0.086948	-61.363728	-69.673737	113.097697	-69.673737	113.097697	-0.123942	-86.072226
4.250000	-0.088317	-62.054304	-69.406682	107.140233	-69.406682	107.140233	-0.125977	-87.046178
4.300000	-0.089702	-62.743861	-69.146086	101.212233	-69.146086	101.212233	-0.128039	-88.019257
4.350000	-0.091107	-63.432206	-68.890994	95.313733	-68.890994	95.313733	-0.130132	-88.991332
4.400000	-0.092530	-64.119456	-68.640951	89.436128	-68.640951	89.436128	-0.132256	-89.962527
4.450000	-0.093972	-64.805611	-68.395323	83.573758	-68.395323	83.573758	-0.134410	-90.932871
4.500000	-0.095432	-65.490670	-68.153484	77.720683	-68.153484	77.720683	-0.136595	-91.902392
4.550000	-0.096912	-66.174634	-67.914828	71.870797	-67.914828	71.870797	-0.138811	-92.871119
4.600000	-0.098412	-66.857467	-67.678631	66.017632	-67.678631	66.017632	-0.141061	-93.839059
4.650000	-0.099934	-67.539135	-67.444152	60.154081	-67.444152	60.154081	-0.143345	-94.806221
4.700000	-0.101476	-68.219711	-67.211134	54.274516	-67.211134	54.274516	-0.145663	-95.772687
4.750000	-0.103040	-68.899194	-66.979104	48.373361	-66.979104	48.373361	-0.148014	-96.738490
4.800000	-0.104625	-69.577586	-66.747636	42.445443	-66.747636	42.445443	-0.150400	-97.703663
4.850000	-0.106232	-70.254890	-66.516356	36.486095	-66.516356	36.486095	-0.152822	-98.668240
4.900000	-0.107860	-70.931107	-66.284940	30.491246	-66.284940	30.491246	-0.155278	-99.632257
4.950000	-0.109512	-71.606240	-66.053125	24.457514	-66.053125	24.457514	-0.157771	-100.595750
5.000000	-0.111187	-72.280291	-65.820710	18.382290	-65.820710	18.382290	-0.160300	-101.558755
5.050000	-0.112895	-72.952776	-65.584353	12.243895	-65.584353	12.243895	-0.162883	-102.521125
5.100000	-0.114614	-73.624847	-65.351508	6.088549	-65.351508	6.088549	-0.165482	-103.483351
5.150000	-0.116366	-74.295394	-65.114927	-0.128952	-65.114927	-0.128952	-0.168134	-104.445044
5.200000	-0.118138	-74.965115	-64.879223	-6.378238	-64.879223	-6.378238	-0.170817	-105.406506
5.250000	-0.119936	-75.633736	-64.642743	-12.669907	-64.642743	-12.669907	-0.173540	-106.367657
5.300000	-0.121763	-76.301126	-64.404872	-19.002187	-64.404872	-19.002187	-0.176309	-107.328550
5.350000	-0.123607	-76.967833	-64.169202	-25.357030	-64.169202	-25.357030	-0.179105	-108.289299
5.400000	-0.125492	-77.632913	-63.930487	-31.751773	-63.930487	-31.751773	-0.181963	-109.249829
5.450000	-0.127387	-78.297588	-63.695968	-38.154972	-63.695968	-38.154972	-0.184838	-110.210314
5.500000	-0.129328	-78.960515	-63.458917	-44.581635	-63.458917	-44.581635	-0.187783	-111.170702
5.550000	-0.131283	-79.622909	-63.225914	-51.008534	-63.225914	-51.008534	-0.190750	-112.131105
5.600000	-0.133274	-80.283971	-62.993517	-57.436021	-62.993517	-57.436021	-0.193772	-113.091545
5.650000	-0.135291	-80.944110	-62.764165	-63.851077	-62.764165	-63.851077	-0.196834	-114.052094
5.700000	-0.137334	-81.603326	-62.537779	-70.253703	-62.537779	-70.253703	-0.199935	-115.012752
5.750000	-0.139415	-82.261239	-62.314151	-76.620890	-62.314151	-76.620890	-0.203093	-115.973686
5.800000	-0.141511	-82.918630	-62.094968	-82.973903	-62.094968	-82.973903	-0.206275	-116.934732
5.850000	-0.143658	-83.574346	-61.878857	-89.260784	-61.878857	-89.260784	-0.209532	-117.896304
5.900000	-0.145817	-84.229679	-61.667668	-95.530058	-61.667668	-95.530058	-0.212808	-118.858024
5.950000	-0.148023	-84.883486	-61.460607	-101.724204	-61.460607	-101.724204	-0.216154	-119.820391
6.000000	-0.150250	-85.536664	-61.258429	-107.883628	-61.258429	-107.883628	-0.219532	-120.783098
6.050000	-0.152514	-86.188713	-61.060961	-113.980551	-61.060961	-113.980551	-0.222963	-121.746418
6.100000	-0.154811	-86.839772	-60.868521	-120.021078	-60.868521	-120.021078	-0.226445	-122.710402
6.150000	-0.157133	-87.490089	-60.680721	-126.019309	-60.680721	-126.019309	-0.229963	-123.674884
6.200000	-0.159503	-88.139066	-60.498272	-131.945839	-60.498272	-131.945839	-0.233551	-124.640459
6.250000	-0.161885	-88.787676	-60.319944	-137.852815	-60.319944	-137.852815	-0.237158	-125.606332
6.300000	-0.164328	-89.434608	-60.147215	-143.685231	-60.147215	-143.685231	-0.240854	-126.573847
6.350000	-0.166786	-90.081185	-59.978235	-149.507197	-59.978235	-149.507197	-0.244571	-127.541777
6.400000	-0.169292	-90.726465	-59.813852	-155.290842	-59.813852	-155.290842	-0.248359	-128.511228
6.450000	-0.171825	-91.371050	-59.652824	-161.068113	-59.652824	-161.068113	-0.252190	-129.481665
6.500000	-0.174395	-92.014707	-59.495119	-166.836884	-59.495119	-166.836884	-0.256075	-130.453416
6.550000	-0.177007	-92.657339	-59.339204	-172.621555	-59.339204	-172.621555	-0.260028	-131.426986
6.600000	-0.179643	-93.299401	-59.185481	-178.415060	-59.185481	-178.415060	-0.264020	-132.401566
6.650000	-0.182335	-93.940121	-59.029700	175.735428	-59.029700	175.735428	-0.268133	-133.379388
6.700000	-0.185042	-94.580507	-58.875069	169.869493	-58.875069	169.869493	-0.272293	-134.358193
6.750000	-0.187811	-95.219463	-58.712669	163.911421	-58.712669	163.911421	-0.276773	-135.342741
6.800000	-0.190601	-95.857986	-58.547889	157.920109	-58.547889	157.920109	-0.281972	-136.330464
6.850000	-0.193439	-96.495422	-58.373039	151.845697	-58.373039	151.845697	-0.288967	-137.326124
6.900000	-0.196312	-97.132102	-58.188700	145.717312	-58.188700	145.717312	-0.295896	-138.292299
6.950000	-0.199220	-97.768024	-57.995536	139.534956	-57.995536	139.534956	-0.302760	-139.228989
7.000000	-0.202173	-98.402836	-57.784920	133.300589	-57.784920	133.300589	-0.305347	-140.203571
7.050000	-0.205145	-99.037205	-57.570846	127.045418	-57.570846	127.045418	-0.306223	-141.193310
7.100000	-0.208134	-99.670069	-57.334433	120.770175	-57.334433	120.770175	-0.309862	-142.189668
7.150000	-0.211115	-100.302721	-57.099312	114.496082	-57.099312	114.496082	-0.313800	-143.186821
7.200000	-0.214041	-100.934786	-56.853358	108.238149	-56.853358	108.238149	-0.318248	-144.185691
7.250000	-0.217083	-101.567092	-56.604130	102.012237	-56.604130	102.012237	-0.322919	-145.186999
7.300000	-0.220277	-102.198540	-56.357826	95.819729	-56.357826	95.819729	-0.327739	-146.190846
7.350000	-0.223550	-102.828956	-56.118239	89.662115	-56.118239	89.662115	-0.332696	-147.197570
7.400000	-0.226859	-103.458419	-55.888918	83.539111	-55.888918	83.539111	-0.337788	-148.207509
7.450000	-0.230194	-104.087094	-55.673108	77.449340	-55.673108	77.449340	-0.343020	-149.221017
7.500000	-0.233556	-104.715074	-55.473718	71.391055	-55.473718	71.391055	-0.348406	-150.238482
7.550000	-0.236957	-105.342258	-55.297905	65.371184	-55.297905	65.371184	-0.354016	-151.261604
7.600000	-0.240393	-105.968827	-55.144763	59.386504	-55.144763	59.386504	-0.359858	-152.290120
7.650000	-0.243863	-106.594797	-55.015808	53.445806	-55.015808	53.445806	-0.365992	-153.324882
7.700000	-0.247368	-107.220185	-54.912377	47.564030	-54.912377	47.564030	-0.372509	-154.367001
7.750000	-0.250909	-107.845003	-54.835698	41.764588	-54.835698	41.764588	-0.379545	-155.417946
7.800000	-0.254485	-108.469264	-54.786942	36.082233	-54.786942	36.082233	-0.387299	-156.479657
7.850000	-0.258101	-109.092880	-54.772479	30.625498	-54.772479	30.625498	-0.396417	-157.558302
7.900000	-0.261747	-109.715969	-54.785383	25.490448	-54.785383	25.490448	-0.407518	-158.656405
7.950000	-0.265425	-110.338462	-54.821609	20.927828	-54.821609	20.927828	-0.422295	-159.783239
8.000000	-0.269132	-110.960277	-54.847508	17.441341	-54.847508	17.441341	-0.444641	-160.952317
8.050000	-0.272876	-111.581240	-54.710144	15.902880	-54.710144	15.902880	-0.484300	-162.176145
8.100000	-0.276721	-112.201069	-53.817033	16.173990	-53.817033	16.173990	-0.569537	-163.402030
8.150000	-0.280815	-112.820284	-51.778989	8.546359	-51.778989	8.546359	-0.735887	-164.041795
8.200000	-0.285083	-113.440624	-51.198184	-9.656480	-51.198184	-9.656480	-0.737337	-163.430509
8.250000	-0.289251	-114.061610	-51.801649	-21.943921	-51.801649	-21.943921	-0.573690	-164.117541
8.300000	-0.293345	-114.682065	-52.321108	-29.971886	-52.321108	-29.971886	-0.499682	-165.406875
8.350000	-0.297449	-115.301835	-52.657085	-36.596898	-52.657085	-36.596898	-0.472876	-166.678216
8.400000	-0.301600	-115.920980	-52.861843	-42.732391	-52.861843	-42.732391	-0.464302	-167.884950
8.450000	-0.305797	-116.539718	-53.001279	-48.725403	-53.001279	-48.725403	-0.461675	-169.057799
8.500000	-0.310050	-117.158046	-53.085514	-54.641372	-53.085514	-54.641372	-0.462714	-170.205142
8.550000	-0.314361	-117.776009	-53.128623	-60.526015	-53.128623	-60.526015	-0.465659	-171.337135
8.600000	-0.318733	-118.393620	-53.137020	-66.399244	-53.137020	-66.399244	-0.469730	-172.459826
8.650000	-0.323158	-119.010945	-53.119302	-72.271424	-53.119302	-72.271424	-0.474416	-173.577942
8.700000	-0.327641	-119.627990	-53.076820	-78.147857	-53.076820	-78.147857	-0.479550	-174.693509
8.750000	-0.332181	-120.244769	-53.011588	-84.033055	-53.011588	-84.033055	-0.484997	-175.808281
8.800000	-0.336792	-120.861243	-52.920313	-89.935815	-52.920313	-89.935815	-0.490711	-176.923959
8.850000	-0.341462	-121.477489	-52.809649	-95.858662	-52.809649	-95.858662	-0.496582	-178.041441
8.900000	-0.346190	-122.093519	-52.680955	-101.806670	-52.680955	-101.806670	-0.502583	-179.161330
8.950000	-0.350977	-122.709347	-52.535745	-107.785354	-52.535745	-107.785354	-0.508694	179.715872
9.000000	-0.355825	-123.324985	-52.375713	-113.800631	-52.375713	-113.800631	-0.514899	178.589737
9.050000	-0.360732	-123.940446	-52.202749	-119.858768	-52.202749	-119.858768	-0.521184	177.459904
9.100000	-0.365710	-124.555718	-52.016973	-125.976764	-52.016973	-125.976764	-0.527552	176.325275
9.150000	-0.370752	-125.170836	-51.823511	-132.157411	-51.823511	-132.157411	-0.533985	175.185964
9.200000	-0.375855	-125.785825	-51.626319	-138.403159	-51.626319	-138.403159	-0.540473	174.041976
9.250000	-0.381020	-126.400695	-51.428801	-144.718211	-51.428801	-144.718211	-0.547011	172.893087
9.300000	-0.386246	-127.015462	-51.234595	-151.105107	-51.234595	-151.105107	-0.553594	171.739082
9.350000	-0.391535	-127.630137	-51.047535	-157.564310	-51.047535	-157.564310	-0.560216	170.579750
9.400000	-0.396894	-128.244727	-50.873345	-164.100664	-50.873345	-164.100664	-0.566874	169.414195
9.450000	-0.402322	-128.859252	-50.718477	-170.702742	-50.718477	-170.702742	-0.573556	168.242106
9.500000	-0.407813	-129.473733	-50.586069	-177.347952	-50.586069	-177.347952	-0.580247	167.063915
9.550000	-0.413368	-130.088185	-50.479824	175.982350	-50.479824	175.982350	-0.586934	165.879390
9.600000	-0.418987	-130.702620	-50.402969	169.310624	-50.402969	169.310624	-0.593596	164.688288
9.650000	-0.424670	-131.317053	-50.358202	162.662723	-50.358202	162.662723	-0.600211	163.490357
9.700000	-0.430422	-131.931498	-50.349685	156.072969	-50.349685	156.072969	-0.606736	162.284897
9.750000	-0.436248	-132.545978	-50.382610	149.594888	-50.382610	149.594888	-0.613089	161.070672
9.800000	-0.442140	-133.160504	-50.450053	143.248365	-50.450053	143.248365	-0.619209	159.848721
9.850000	-0.448098	-133.775091	-50.550460	137.060178	-50.550460	137.060178	-0.625001	158.618920
9.900000	-0.454122	-134.389751	-50.681739	131.053729	-50.681739	131.053729	-0.630348	157.381301
9.950000	-0.460211	-135.004499	-50.841329	125.248606	-50.841329	125.248606	-0.635113	156.136126
10.000000	-0.466367	-135.619347	-51.026268	119.660193	-51.026268	119.660193	-0.639144	154.883962
