! freq	dB(S11)	phase(S11)	dB(S12)	phase(S12)	
!     	dB(S21)	phase(S21)	dB(S22)	phase(S22)	
!S-par simulation data
#  GHz  S  DB  R 50
0.000000	-0.000000	0.000000	-362.427564	0.000000	-362.427564	0.000000	-0.000000	0.000000
0.050000	-0.000116	-0.762192	-99.838119	7.397249	-99.838119	7.397249	-0.000115	-0.762161
0.100000	-0.000455	-1.524033	-99.777403	10.274606	-99.777403	10.274606	-0.000450	-1.523979
0.150000	-0.000997	-2.285198	-99.696575	13.964328	-99.696575	13.964328	-0.000987	-2.285137
0.200000	-0.001697	-3.045536	-99.601350	17.671177	-99.601350	17.671177	-0.001681	-3.045483
0.250000	-0.002523	-3.804901	-99.502511	21.216575	-99.502511	21.216575	-0.002503	-3.804871
0.300000	-0.003451	-4.563145	-99.415121	24.510468	-99.415121	24.510468	-0.003427	-4.563147
0.350000	-0.004436	-5.320450	-99.351143	27.577868	-99.351143	27.577868	-0.004411	-5.320488
0.400000	-0.005466	-6.076712	-99.328405	30.396278	-99.328405	30.396278	-0.005442	-6.076784
0.450000	-0.006521	-6.832073	-99.358289	33.019122	-99.358289	33.019122	-0.006499	-6.832176
0.500000	-0.007591	-7.586549	-99.458137	35.485701	-99.458137	35.485701	-0.007571	-7.586677
0.550000	-0.008668	-8.340199	-99.644645	37.864434	-99.644645	37.864434	-0.008651	-8.340344
0.600000	-0.009746	-9.093062	-99.937699	40.245080	-99.937699	40.245080	-0.009733	-9.093220
0.650000	-0.010825	-9.845172	-100.361769	42.753047	-100.361769	42.753047	-0.010815	-9.845337
0.700000	-0.011901	-10.596551	-100.948411	45.575230	-100.948411	45.575230	-0.011894	-10.596717
0.750000	-0.012973	-11.347213	-101.739593	49.013583	-101.739593	49.013583	-0.012969	-11.347378
0.800000	-0.014042	-12.097167	-102.790886	53.602038	-102.790886	53.602038	-0.014039	-12.097329
0.850000	-0.015105	-12.846295	-104.154157	61.538907	-104.154157	61.538907	-0.015104	-12.846451
0.900000	-0.016163	-13.594688	-105.856694	74.057632	-105.856694	74.057632	-0.016164	-13.594839
0.950000	-0.017219	-14.342711	-107.387758	90.896211	-107.387758	90.896211	-0.017221	-14.342855
1.000000	-0.018266	-15.089622	-107.354779	120.694348	-107.354779	120.694348	-0.018268	-15.089761
1.050000	-0.019311	-15.836282	-106.637391	148.201547	-106.637391	148.201547	-0.019314	-15.836416
1.100000	-0.020347	-16.581685	-103.361080	164.254052	-103.361080	164.254052	-0.020350	-16.581813
1.150000	-0.021381	-17.326958	-100.897842	179.383790	-100.897842	179.383790	-0.021384	-17.327082
1.200000	-0.022404	-18.070815	-98.226077	-175.636895	-98.226077	-175.636895	-0.022407	-18.070936
1.250000	-0.023427	-18.814671	-96.185712	-170.657581	-96.185712	-170.657581	-0.023430	-18.814790
1.300000	-0.024440	-19.557343	-94.240493	-168.380373	-94.240493	-168.380373	-0.024443	-19.557461
1.350000	-0.025448	-20.299243	-92.502639	-166.942996	-92.502639	-166.942996	-0.025450	-20.299361
1.400000	-0.026450	-21.040362	-90.928499	-166.071710	-90.928499	-166.071710	-0.026452	-21.040479
1.450000	-0.027446	-21.780687	-89.486425	-165.601740	-89.486425	-165.601740	-0.027447	-21.780805
1.500000	-0.028437	-22.520207	-88.153072	-165.428461	-88.153072	-165.428461	-0.028438	-22.520327
1.550000	-0.029423	-23.258910	-86.910851	-165.482313	-86.910851	-165.482313	-0.029424	-23.259032
1.600000	-0.030404	-23.996784	-85.746225	-165.715193	-85.746225	-165.715193	-0.030405	-23.996909
1.650000	-0.031381	-24.733816	-84.648578	-166.092687	-84.648578	-166.092687	-0.031381	-24.733944
1.700000	-0.032353	-25.469690	-83.586107	-166.622077	-83.586107	-166.622077	-0.032353	-25.469822
1.750000	-0.033323	-26.205114	-82.608895	-167.206716	-82.608895	-167.206716	-0.033323	-26.205250
1.800000	-0.034290	-26.939459	-81.663050	-167.889486	-81.663050	-167.889486	-0.034289	-26.939598
1.850000	-0.035255	-27.673032	-80.766710	-168.642350	-80.766710	-168.642350	-0.035254	-27.673176
1.900000	-0.036217	-28.405650	-79.904342	-169.458386	-79.904342	-169.458386	-0.036216	-28.405798
1.950000	-0.037178	-29.137314	-79.074540	-170.337594	-79.074540	-170.337594	-0.037176	-29.137466
2.000000	-0.038138	-29.868156	-78.280831	-171.257985	-78.280831	-171.257985	-0.038136	-29.868312
2.050000	-0.039097	-30.597848	-77.507081	-172.236032	-77.507081	-172.236032	-0.039095	-30.598009
2.100000	-0.040056	-31.326862	-76.771069	-173.240657	-76.771069	-173.240657	-0.040054	-31.327028
2.150000	-0.041015	-32.054521	-76.045451	-174.298437	-76.045451	-174.298437	-0.041014	-32.054692
2.200000	-0.041976	-32.781657	-75.358778	-175.372674	-75.358778	-175.372674	-0.041974	-32.781832
2.250000	-0.042938	-33.507222	-74.675142	-176.496283	-74.675142	-176.496283	-0.042936	-33.507402
2.300000	-0.043901	-34.232428	-74.031277	-177.629113	-74.031277	-177.629113	-0.043899	-34.232613
2.350000	-0.044867	-34.955838	-73.384741	-178.808044	-73.384741	-178.808044	-0.044866	-34.956027
2.400000	-0.045835	-35.679063	-72.778470	-179.990901	-72.778470	-179.990901	-0.045833	-35.679257
2.450000	-0.046808	-36.400258	-72.165084	178.783056	-72.165084	178.783056	-0.046807	-36.400457
2.500000	-0.047781	-37.121453	-71.592172	177.557014	-71.592172	177.557014	-0.047780	-37.121657
2.550000	-0.048763	-37.840374	-71.008683	176.290457	-71.008683	176.290457	-0.048762	-37.840583
2.600000	-0.049745	-38.559296	-70.461936	175.023901	-70.461936	175.023901	-0.049744	-38.559509
2.650000	-0.050736	-39.276081	-69.909327	173.725190	-69.909327	173.725190	-0.050735	-39.276299
2.700000	-0.051728	-39.992673	-69.386515	172.423555	-69.386515	172.423555	-0.051727	-39.992895
2.750000	-0.052729	-40.707277	-68.861793	171.096499	-68.861793	171.096499	-0.052728	-40.707503
2.800000	-0.053733	-41.421483	-68.361015	169.764360	-68.361015	169.764360	-0.053732	-41.421714
2.850000	-0.054747	-42.133862	-67.861635	168.412283	-67.861635	168.412283	-0.054746	-42.134098
2.900000	-0.055764	-42.845632	-67.381249	167.053561	-67.381249	167.053561	-0.055763	-42.845872
2.950000	-0.056791	-43.555743	-66.905027	165.679393	-66.905027	165.679393	-0.056790	-43.555988
3.000000	-0.057823	-44.265026	-66.443603	164.297502	-66.443603	164.297502	-0.057823	-44.265275
3.050000	-0.058865	-44.972831	-65.988642	162.903852	-65.988642	162.903852	-0.058864	-44.973084
3.100000	-0.059913	-45.679579	-65.544919	161.501802	-65.544919	161.501802	-0.059913	-45.679837
3.150000	-0.060971	-46.385039	-65.109561	160.091015	-65.109561	160.091015	-0.060970	-46.385302
3.200000	-0.062037	-47.089210	-64.682415	158.671489	-64.682415	158.671489	-0.062037	-47.089477
3.250000	-0.063112	-47.792289	-64.265197	157.245683	-64.265197	157.245683	-0.063111	-47.792561
3.300000	-0.064197	-48.493840	-63.853619	155.811086	-63.853619	155.811086	-0.064197	-48.494116
3.350000	-0.065290	-49.194505	-63.453240	154.372187	-63.453240	154.372187	-0.065290	-49.194786
3.400000	-0.066396	-49.893398	-63.056315	152.924687	-63.056315	152.924687	-0.066396	-49.893684
3.450000	-0.067508	-50.591618	-62.671613	151.474450	-62.671613	151.474450	-0.067508	-50.591909
3.500000	-0.068637	-51.287819	-62.288505	150.016005	-62.288505	150.016005	-0.068637	-51.288114
3.550000	-0.069769	-51.983564	-61.918431	148.556031	-61.918431	148.556031	-0.069769	-51.983865
3.600000	-0.070921	-52.677039	-61.548369	147.088411	-61.548369	147.088411	-0.070921	-52.677344
3.650000	-0.072075	-53.370284	-61.191976	145.620160	-61.191976	145.620160	-0.072075	-53.370594
3.700000	-0.073252	-54.061004	-60.834247	144.144962	-60.834247	144.144962	-0.073252	-54.061319
3.750000	-0.074429	-54.751724	-60.490670	142.669764	-60.490670	142.669764	-0.074429	-54.752044
3.800000	-0.075632	-55.439664	-60.144609	141.188420	-60.144609	141.188420	-0.075632	-55.439989
3.850000	-0.076835	-56.127603	-59.811809	139.707077	-59.811809	139.707077	-0.076836	-56.127934
3.900000	-0.078064	-56.812973	-59.478043	138.221274	-59.478043	138.221274	-0.078064	-56.813308
3.950000	-0.079295	-57.498108	-59.155470	136.735065	-59.155470	136.735065	-0.079295	-57.498449
4.000000	-0.080550	-58.180891	-58.833238	135.245745	-58.833238	135.245745	-0.080550	-58.181237
4.050000	-0.081810	-58.863203	-58.520373	133.755804	-58.520373	133.755804	-0.081810	-58.863555
4.100000	-0.083093	-59.543385	-58.208974	132.263807	-58.208974	132.263807	-0.083093	-59.543742
4.150000	-0.084384	-60.222857	-57.905326	130.771125	-57.905326	130.771125	-0.084384	-60.223219
4.200000	-0.085696	-60.900426	-57.604111	129.277188	-57.604111	129.277188	-0.085696	-60.900794
4.250000	-0.087019	-61.577043	-57.309213	127.782624	-57.309213	127.782624	-0.087019	-61.577417
4.300000	-0.088362	-62.251989	-57.017583	126.287387	-57.017583	126.287387	-0.088362	-62.252368
4.350000	-0.089719	-62.925740	-56.730993	124.791670	-56.730993	124.791670	-0.089719	-62.926125
4.400000	-0.091093	-63.598055	-56.448390	123.295681	-56.448390	123.295681	-0.091093	-63.598446
4.450000	-0.092485	-64.268933	-56.169689	121.799418	-56.169689	121.799418	-0.092485	-64.269330
4.500000	-0.093892	-64.938612	-55.895596	120.303133	-55.895596	120.303133	-0.093892	-64.939015
4.550000	-0.095321	-65.606611	-55.624386	118.806816	-55.624386	118.806816	-0.095321	-65.607020
4.600000	-0.096763	-66.273650	-55.358324	117.310609	-55.358324	117.310609	-0.096763	-66.274065
4.650000	-0.098231	-66.938768	-55.094227	115.814622	-55.094227	115.814622	-0.098231	-66.939188
4.700000	-0.099709	-67.603165	-54.835749	114.318787	-54.835749	114.318787	-0.099709	-67.603592
4.750000	-0.101217	-68.265401	-54.578409	112.823411	-54.578409	112.823411	-0.101217	-68.265834
4.800000	-0.102732	-68.927158	-54.327101	111.328169	-54.327101	111.328169	-0.102732	-68.927597
4.850000	-0.104282	-69.586516	-54.076183	109.833593	-54.076183	109.833593	-0.104282	-69.586961
4.900000	-0.105836	-70.245634	-53.831658	108.339094	-53.831658	108.339094	-0.105836	-70.246086
4.950000	-0.107430	-70.902118	-53.586847	106.845425	-53.586847	106.845425	-0.107430	-70.902577
5.000000	-0.109025	-71.558603	-53.348747	105.351756	-53.348747	105.351756	-0.109025	-71.559068
5.050000	-0.110665	-72.212222	-53.109748	103.859025	-53.109748	103.859025	-0.110665	-72.212693
5.100000	-0.112305	-72.865841	-52.877150	102.366293	-52.877150	102.366293	-0.112305	-72.866319
5.150000	-0.113988	-73.516843	-52.644280	100.874388	-52.644280	100.874388	-0.113988	-73.517327
5.200000	-0.115676	-74.167607	-52.416930	99.382559	-52.416930	99.382559	-0.115676	-74.168098
5.250000	-0.117404	-74.816002	-52.189881	97.891405	-52.189881	97.891405	-0.117404	-74.816500
5.300000	-0.119141	-75.463923	-51.967544	96.400387	-51.967544	96.400387	-0.119141	-75.464428
5.350000	-0.120917	-76.109724	-51.746030	94.909874	-51.746030	94.909874	-0.120917	-76.110235
5.400000	-0.122705	-76.754818	-51.528490	93.419531	-51.528490	93.419531	-0.122705	-76.755336
5.450000	-0.124529	-77.398038	-51.312252	91.929522	-51.312252	91.929522	-0.124529	-77.398562
5.500000	-0.126371	-78.040321	-51.099309	90.439681	-51.099309	90.439681	-0.126371	-78.040852
5.550000	-0.128245	-78.680976	-50.888108	88.950018	-50.888108	88.950018	-0.128245	-78.681514
5.600000	-0.130142	-79.320467	-50.679582	87.460481	-50.679582	87.460481	-0.130142	-79.321013
5.650000	-0.132068	-79.958574	-50.473199	85.970991	-50.473199	85.970991	-0.132068	-79.959127
5.700000	-0.134022	-80.595296	-50.268926	84.481545	-50.268926	84.481545	-0.134022	-80.595856
5.750000	-0.136001	-81.230874	-50.067164	82.992047	-50.067164	82.992047	-0.136001	-81.231440
5.800000	-0.138014	-81.864849	-49.866996	81.502474	-49.866996	81.502474	-0.138015	-81.865422
5.850000	-0.140048	-82.497918	-49.669674	80.012788	-49.669674	80.012788	-0.140049	-82.498498
5.900000	-0.142123	-83.129172	-49.473483	78.522873	-49.473483	78.522873	-0.142123	-83.129759
5.950000	-0.144213	-83.759753	-49.280439	77.032824	-49.280439	77.032824	-0.144214	-83.760347
6.000000	-0.146351	-84.388313	-49.088109	75.542368	-49.088109	75.542368	-0.146351	-84.388914
6.050000	-0.148500	-85.016430	-48.899195	74.051793	-48.899195	74.051793	-0.148500	-85.017038
6.100000	-0.150702	-85.642325	-48.710627	72.560620	-48.710627	72.560620	-0.150703	-85.642940
6.150000	-0.152911	-86.268001	-48.525711	71.069375	-48.525711	71.069375	-0.152911	-86.268623
6.200000	-0.155180	-86.891263	-48.340820	69.577341	-48.340820	69.577341	-0.155181	-86.891892
6.250000	-0.157450	-87.514525	-48.159783	68.085307	-48.159783	68.085307	-0.157451	-87.515161
6.300000	-0.159788	-88.135186	-47.978497	66.592310	-47.978497	66.592310	-0.159789	-88.135829
6.350000	-0.162127	-88.755846	-47.800917	65.099314	-47.800917	65.099314	-0.162128	-88.756496
6.400000	-0.164530	-89.374154	-47.623490	63.605386	-47.623490	63.605386	-0.164531	-89.374811
6.450000	-0.166940	-89.992248	-47.449311	62.111373	-47.449311	62.111373	-0.166941	-89.992912
6.500000	-0.169410	-90.608233	-47.275653	60.616517	-47.275653	60.616517	-0.169411	-90.608904
6.550000	-0.171892	-91.223796	-47.104830	59.121492	-47.104830	59.121492	-0.171893	-91.224474
6.600000	-0.174429	-91.837490	-46.934859	57.625758	-46.934859	57.625758	-0.174430	-91.838175
6.650000	-0.176985	-92.450560	-46.767353	56.129787	-46.767353	56.129787	-0.176986	-92.451252
6.700000	-0.179592	-93.061994	-46.600997	54.633275	-46.600997	54.633275	-0.179593	-93.062693
6.750000	-0.182224	-93.672611	-46.436777	53.136493	-46.436777	53.136493	-0.182225	-93.673317
6.800000	-0.184902	-94.281820	-46.273967	51.639358	-46.273967	51.639358	-0.184903	-94.282533
6.850000	-0.187611	-94.890024	-46.113006	50.141971	-46.113006	50.141971	-0.187613	-94.890744
6.900000	-0.190361	-95.497043	-45.953681	48.644423	-45.953681	48.644423	-0.190362	-95.497769
6.950000	-0.193150	-96.102876	-45.795955	47.146714	-45.795955	47.146714	-0.193151	-96.103610
7.000000	-0.195972	-96.707741	-45.640054	45.649021	-45.640054	45.649021	-0.195974	-96.708481
7.050000	-0.198842	-97.311248	-45.485541	44.151350	-45.485541	44.151350	-0.198843	-97.311995
7.100000	-0.201739	-97.913995	-45.333007	42.653838	-45.333007	42.653838	-0.201740	-97.914749
7.150000	-0.204690	-98.515222	-45.181683	41.156642	-45.181683	41.156642	-0.204692	-98.515983
7.200000	-0.207663	-99.115890	-45.032457	39.659694	-45.032457	39.659694	-0.207664	-99.116658
7.250000	-0.210697	-99.714883	-44.884297	38.163487	-44.884297	38.163487	-0.210699	-99.715658
7.300000	-0.213747	-100.313512	-44.738322	36.667543	-44.738322	36.667543	-0.213748	-100.314294
7.350000	-0.216866	-100.910320	-44.593291	35.172914	-44.593291	35.172914	-0.216867	-100.911109
7.400000	-0.219993	-101.506950	-44.450507	33.678470	-44.450507	33.678470	-0.219994	-101.507745
7.450000	-0.223197	-102.101623	-44.308568	32.186073	-44.308568	32.186073	-0.223199	-102.102425
7.500000	-0.226402	-102.696296	-44.168910	30.693676	-44.168910	30.693676	-0.226404	-102.697105
7.550000	-0.229693	-103.288885	-44.030014	29.204233	-44.030014	29.204233	-0.229694	-103.289702
7.600000	-0.232984	-103.881475	-43.893303	27.714790	-43.893303	27.714790	-0.232986	-103.882299
7.650000	-0.236354	-104.472204	-43.757501	26.228765	-43.757501	26.228765	-0.236356	-104.473034
7.700000	-0.239733	-105.062763	-43.623682	24.743051	-43.623682	24.743051	-0.239735	-105.063601
7.750000	-0.243183	-105.651677	-43.490885	23.261130	-43.490885	23.261130	-0.243185	-105.652521
7.800000	-0.246649	-106.240261	-43.359888	21.779968	-43.359888	21.779968	-0.246651	-106.241113
7.850000	-0.250180	-106.827406	-43.229996	20.302866	-43.229996	20.302866	-0.250183	-106.828265
7.900000	-0.253734	-107.414071	-43.101741	18.827116	-43.101741	18.827116	-0.253736	-107.414937
7.950000	-0.257346	-107.999496	-42.974644	17.355567	-42.974644	17.355567	-0.257348	-108.000369
8.000000	-0.260988	-108.584301	-42.849033	15.886117	-42.849033	15.886117	-0.260990	-108.585181
8.050000	-0.264681	-109.168054	-42.724615	14.420867	-42.724615	14.420867	-0.264683	-109.168942
8.100000	-0.268411	-109.751057	-42.601533	12.958618	-42.601533	12.958618	-0.268413	-109.751953
8.150000	-0.272184	-110.333191	-42.479664	11.500421	-42.479664	11.500421	-0.272187	-110.334094
8.200000	-0.276002	-110.914454	-42.358981	10.046276	-42.358981	10.046276	-0.276004	-110.915364
8.250000	-0.279856	-111.495019	-42.239521	8.595881	-42.239521	8.595881	-0.279859	-111.495937
8.300000	-0.283761	-112.074605	-42.121088	7.150735	-42.121088	7.150735	-0.283763	-112.075531
8.350000	-0.287695	-112.653655	-42.003887	5.708879	-42.003887	5.708879	-0.287698	-112.654589
8.400000	-0.291686	-113.231630	-41.887536	4.273604	-41.887536	4.273604	-0.291689	-113.232572
8.450000	-0.295699	-113.809219	-41.772433	2.841006	-41.772433	2.841006	-0.295702	-113.810169
8.500000	-0.299776	-114.385649	-41.657979	1.416438	-41.657979	1.416438	-0.299779	-114.386607
8.550000	-0.303868	-114.961834	-41.544802	-0.006212	-41.544802	-0.006212	-0.303871	-114.962800
8.600000	-0.308028	-115.536788	-41.432039	-1.419278	-41.432039	-1.419278	-0.308032	-115.537763
8.650000	-0.312198	-116.111626	-41.320604	-2.831325	-41.320604	-2.831325	-0.312202	-116.112609
8.700000	-0.316441	-116.685175	-41.209310	-4.232155	-41.209310	-4.232155	-0.316445	-116.686168
8.750000	-0.320686	-117.258725	-41.099424	-5.632985	-41.099424	-5.632985	-0.320691	-117.259727
8.800000	-0.325010	-117.830943	-40.989357	-7.020908	-40.989357	-7.020908	-0.325015	-117.831954
8.850000	-0.329336	-118.403160	-40.880668	-8.408831	-40.880668	-8.408831	-0.329341	-118.404181
8.900000	-0.333732	-118.974226	-40.771718	-9.784378	-40.771718	-9.784378	-0.333737	-118.975257
8.950000	-0.338136	-119.545187	-40.663974	-11.158800	-40.663974	-11.158800	-0.338142	-119.546228
9.000000	-0.342602	-120.115166	-40.555902	-12.521543	-40.555902	-12.521543	-0.342608	-120.116217
9.050000	-0.347082	-120.684948	-40.448833	-13.881951	-40.448833	-13.881951	-0.347089	-120.686010
9.100000	-0.351615	-121.253907	-40.341391	-15.231530	-40.341391	-15.231530	-0.351622	-121.254979
9.150000	-0.356167	-121.822590	-40.234711	-16.577500	-40.234711	-16.577500	-0.356176	-121.823673
9.200000	-0.360765	-122.390596	-40.127642	-17.913626	-40.127642	-17.913626	-0.360774	-122.391691
9.250000	-0.365387	-122.958263	-40.021047	-19.244830	-40.021047	-19.244830	-0.365397	-122.959369
9.300000	-0.370046	-123.525387	-39.914086	-20.567287	-39.914086	-20.567287	-0.370057	-123.526506
9.350000	-0.374733	-124.092123	-39.807256	-21.883497	-39.807256	-21.883497	-0.374744	-124.093255
9.400000	-0.379450	-124.658438	-39.700127	-23.192146	-39.700127	-23.192146	-0.379463	-124.659582
9.450000	-0.384198	-125.224332	-39.592725	-24.493236	-39.592725	-24.493236	-0.384212	-125.225489
9.500000	-0.388969	-125.789912	-39.485144	-25.788018	-39.485144	-25.788018	-0.388984	-125.791083
9.550000	-0.393773	-126.355054	-39.376817	-27.073970	-39.376817	-27.073970	-0.393789	-126.356239
9.600000	-0.398594	-126.919976	-39.268491	-28.354908	-39.268491	-28.354908	-0.398612	-126.921176
9.650000	-0.403448	-127.484461	-39.158867	-29.625816	-39.158867	-29.625816	-0.403467	-127.485676
9.700000	-0.408314	-128.048805	-39.049494	-30.893014	-39.049494	-30.893014	-0.408335	-128.050036
9.750000	-0.413213	-128.612729	-38.938180	-32.149085	-38.938180	-32.149085	-0.413235	-128.613976
9.800000	-0.418119	-129.176576	-38.827449	-33.402738	-38.827449	-33.402738	-0.418144	-129.177840
9.850000	-0.423055	-129.740041	-38.714034	-34.644297	-38.714034	-34.644297	-0.423082	-129.741323
9.900000	-0.427996	-130.303477	-38.601623	-35.884684	-38.601623	-35.884684	-0.428025	-130.304776
9.950000	-0.432963	-130.866587	-38.485672	-37.112180	-38.485672	-37.112180	-0.432994	-130.867905
10.000000	-0.437932	-131.429697	-38.371249	-38.339675	-38.371249	-38.339675	-0.437966	-131.431034
