! freq	dB(S11)	phase(S11)	dB(S12)	phase(S12)	
!     	dB(S21)	phase(S21)	dB(S22)	phase(S22)	
!S-par simulation data
#  GHz  S  DB  R 50
0.000000	-0.000000	0.000000	-366.040081	0.000000	-366.040081	0.000000	-0.000000	0.000000
0.050000	-0.000205	-0.765364	-101.044272	177.488558	-101.044272	177.488558	-0.000124	-1.239949
0.100000	-0.000780	-1.529762	-99.606646	152.643509	-99.606646	152.643509	-0.000493	-2.479624
0.150000	-0.001625	-2.292566	-98.172897	137.397972	-98.172897	137.397972	-0.001097	-3.718766
0.200000	-0.002625	-3.053596	-96.804758	126.817927	-96.804758	126.817927	-0.001920	-4.957141
0.250000	-0.003695	-3.812865	-95.575061	119.228782	-95.575061	119.228782	-0.002959	-6.194466
0.300000	-0.004772	-4.570787	-94.506006	113.368062	-94.506006	113.368062	-0.004171	-7.430643
0.350000	-0.005833	-5.327557	-93.588903	108.778019	-93.588903	108.778019	-0.005546	-8.665473
0.400000	-0.006867	-6.083395	-92.811515	105.098487	-92.811515	105.098487	-0.007058	-9.898822
0.450000	-0.007876	-6.838462	-92.161256	102.108246	-92.161256	102.108246	-0.008686	-11.130587
0.500000	-0.008863	-7.592863	-91.627341	99.671589	-91.627341	99.671589	-0.010406	-12.360688
0.550000	-0.009835	-8.346656	-91.201266	97.708561	-91.201266	97.708561	-0.012198	-13.589071
0.600000	-0.010798	-9.099871	-90.876706	96.178477	-90.876706	96.178477	-0.014042	-14.815699
0.650000	-0.011758	-9.852518	-90.649212	95.071311	-90.649212	95.071311	-0.015922	-16.040552
0.700000	-0.012717	-10.604590	-90.515820	94.404153	-90.515820	94.404153	-0.017823	-17.263618
0.750000	-0.013679	-11.356077	-90.474533	94.221367	-90.474533	94.221367	-0.019732	-18.484897
0.800000	-0.014644	-12.106962	-90.523557	94.597856	-90.523557	94.597856	-0.021640	-19.704393
0.850000	-0.015614	-12.857226	-90.660019	95.645048	-90.660019	95.645048	-0.023538	-20.922110
0.900000	-0.016588	-13.606849	-90.877708	97.518675	-90.877708	97.518675	-0.025419	-22.138057
0.950000	-0.017567	-14.355814	-91.163097	100.425198	-91.163097	100.425198	-0.027279	-23.352238
1.000000	-0.018550	-15.104100	-91.488678	104.617925	-91.488678	104.617925	-0.029115	-24.564658
1.050000	-0.019537	-15.851692	-91.803281	110.362579	-91.803281	110.362579	-0.030924	-25.775317
1.100000	-0.020526	-16.598571	-92.022427	117.838899	-92.022427	117.838899	-0.032705	-26.984214
1.150000	-0.021517	-17.344723	-92.030138	126.955581	-92.030138	126.955581	-0.034459	-28.191344
1.200000	-0.022510	-18.090131	-91.710960	137.148342	-91.710960	137.148342	-0.036184	-29.396699
1.250000	-0.023502	-18.834782	-91.011177	147.401148	-91.011177	147.401148	-0.037883	-30.600267
1.300000	-0.024494	-19.578628	-89.960561	156.590397	-89.960561	156.590397	-0.039555	-31.801954
1.350000	-0.025486	-20.321687	-88.694959	164.160386	-88.694959	164.160386	-0.041202	-33.001823
1.400000	-0.026475	-21.063947	-87.329777	170.044288	-87.329777	170.044288	-0.042827	-34.199852
1.450000	-0.027464	-21.805395	-85.946365	174.440171	-85.946365	174.440171	-0.044431	-35.396022
1.500000	-0.028450	-22.546018	-84.591751	177.623845	-84.591751	177.623845	-0.046016	-36.590310
1.550000	-0.029433	-23.285803	-83.289113	179.855529	-83.289113	179.855529	-0.047584	-37.782692
1.600000	-0.030415	-24.024739	-82.047599	-178.650619	-82.047599	-178.650619	-0.049137	-38.973144
1.650000	-0.031394	-24.762811	-80.868867	-177.728300	-80.868867	-177.728300	-0.050676	-40.161640
1.700000	-0.032371	-25.500008	-79.750874	-177.251350	-79.750874	-177.251350	-0.052203	-41.348156
1.750000	-0.033345	-26.236317	-78.689943	-177.124625	-78.689943	-177.124625	-0.053720	-42.532666
1.800000	-0.034317	-26.971725	-77.681831	-177.276165	-77.681831	-177.276165	-0.055229	-43.715144
1.850000	-0.035287	-27.706220	-76.722265	-177.651139	-76.722265	-177.651139	-0.056731	-44.895567
1.900000	-0.036256	-28.439787	-75.807194	-178.207365	-75.807194	-178.207365	-0.058228	-46.073910
1.950000	-0.037223	-29.172415	-74.932893	-178.912053	-74.932893	-178.912053	-0.059721	-47.250148
2.000000	-0.038189	-29.904090	-74.095987	-179.739444	-74.095987	-179.739444	-0.061212	-48.424261
2.050000	-0.039154	-30.634800	-73.293445	179.330908	-73.293445	179.330908	-0.062701	-49.596226
2.100000	-0.040119	-31.364530	-72.522558	178.315391	-72.522558	178.315391	-0.064190	-50.766023
2.150000	-0.041084	-32.093268	-71.780903	177.227264	-71.780903	177.227264	-0.065681	-51.933632
2.200000	-0.042049	-32.821001	-71.066314	176.077346	-71.066314	176.077346	-0.067173	-53.099036
2.250000	-0.043015	-33.547715	-70.376852	174.874537	-70.376852	174.874537	-0.068669	-54.262218
2.300000	-0.043983	-34.273398	-69.710775	173.626215	-69.710775	173.626215	-0.070169	-55.423163
2.350000	-0.044951	-34.998037	-69.066517	172.338537	-69.066517	172.338537	-0.071674	-56.581857
2.400000	-0.045922	-35.721618	-68.442667	171.016675	-68.442667	171.016675	-0.073185	-57.738288
2.450000	-0.046896	-36.444129	-67.837945	169.665002	-67.837945	169.665002	-0.074702	-58.892446
2.500000	-0.047872	-37.165557	-67.251194	168.287230	-67.251194	168.287230	-0.076227	-60.044321
2.550000	-0.048851	-37.885842	-66.680471	166.885664	-66.680471	166.885664	-0.077761	-61.193808
2.600000	-0.049835	-38.605017	-66.125798	165.464104	-66.125798	165.464104	-0.079304	-62.340999
2.650000	-0.050823	-39.323071	-65.586285	164.024855	-65.586285	164.024855	-0.080857	-63.485891
2.700000	-0.051815	-40.039992	-65.061117	162.569913	-65.061117	162.569913	-0.082420	-64.628482
2.750000	-0.052812	-40.755768	-64.549545	161.101017	-64.549545	161.101017	-0.083994	-65.768772
2.800000	-0.053815	-41.470387	-64.050880	159.619684	-64.050880	159.619684	-0.085580	-66.906762
2.850000	-0.054824	-42.183838	-63.564489	158.127245	-63.564489	158.127245	-0.087178	-68.042456
2.900000	-0.055839	-42.896109	-63.089783	156.624867	-63.089783	156.624867	-0.088788	-69.175859
2.950000	-0.056861	-43.607190	-62.626220	155.113581	-62.626220	155.113581	-0.090413	-70.306976
3.000000	-0.057890	-44.317071	-62.173296	153.594297	-62.173296	153.594297	-0.092051	-71.435818
3.050000	-0.058926	-45.025740	-61.730540	152.067821	-61.730540	152.067821	-0.093704	-72.562392
3.100000	-0.059970	-45.733188	-61.297518	150.534870	-61.297518	150.534870	-0.095372	-73.686712
3.150000	-0.061023	-46.439404	-60.873822	148.996081	-60.873822	148.996081	-0.097055	-74.808791
3.200000	-0.062084	-47.144380	-60.459072	147.452025	-60.459072	147.452025	-0.098755	-75.928644
3.250000	-0.063154	-47.848105	-60.052913	145.903210	-60.052913	145.903210	-0.100472	-77.046288
3.300000	-0.064233	-48.550572	-59.655011	144.350093	-59.655011	144.350093	-0.102206	-78.161741
3.350000	-0.065322	-49.251770	-59.265055	142.793086	-59.265055	142.793086	-0.103958	-79.275023
3.400000	-0.066422	-49.951693	-58.882749	141.232558	-58.882749	141.232558	-0.105728	-80.386157
3.450000	-0.067531	-50.650331	-58.507820	139.668844	-58.507820	139.668844	-0.107517	-81.495165
3.500000	-0.068652	-51.347678	-58.140006	138.102246	-58.140006	138.102246	-0.109326	-82.602072
3.550000	-0.069784	-52.043725	-57.779064	136.533041	-57.779064	136.533041	-0.111155	-83.706906
3.600000	-0.070927	-52.738466	-57.424761	134.961477	-57.424761	134.961477	-0.113005	-84.809693
3.650000	-0.072082	-53.431893	-57.076880	133.387783	-57.076880	133.387783	-0.114875	-85.910465
3.700000	-0.073250	-54.124001	-56.735214	131.812169	-56.735214	131.812169	-0.116768	-87.009251
3.750000	-0.074430	-54.814783	-56.399567	130.234826	-56.399567	130.234826	-0.118683	-88.106085
3.800000	-0.075624	-55.504175	-56.069466	128.655872	-56.069466	128.655872	-0.120622	-89.200919
3.850000	-0.076831	-56.192230	-55.745045	127.075543	-55.745045	127.075543	-0.122585	-90.293874
3.900000	-0.078052	-56.878942	-55.426137	125.493990	-55.426137	125.493990	-0.124572	-91.384987
3.950000	-0.079287	-57.564307	-55.112581	123.911353	-55.112581	123.911353	-0.126584	-92.474298
4.000000	-0.080537	-58.248319	-54.804225	122.327761	-54.804225	122.327761	-0.128621	-93.561846
4.050000	-0.081801	-58.930976	-54.500926	120.743338	-54.500926	120.743338	-0.130684	-94.647674
4.100000	-0.083080	-59.612272	-54.202545	119.158198	-54.202545	119.158198	-0.132774	-95.731823
4.150000	-0.084375	-60.292205	-53.908950	117.572451	-53.908950	117.572451	-0.134891	-96.814339
4.200000	-0.085686	-60.970771	-53.620017	115.986199	-53.620017	115.986199	-0.137036	-97.895268
4.250000	-0.087013	-61.647968	-53.335626	114.399541	-53.335626	114.399541	-0.139209	-98.974657
4.300000	-0.088356	-62.323793	-53.055661	112.812570	-53.055661	112.812570	-0.141412	-100.052554
4.350000	-0.089716	-62.998243	-52.780014	111.225375	-52.780014	111.225375	-0.143645	-101.129009
4.400000	-0.091094	-63.671318	-52.508579	109.638044	-52.508579	109.638044	-0.145907	-102.204074
4.450000	-0.092490	-64.343014	-52.241255	108.050657	-52.241255	108.050657	-0.148201	-103.277800
4.500000	-0.093903	-65.013331	-51.977946	106.463295	-51.977946	106.463295	-0.150527	-104.350242
4.550000	-0.095335	-65.682268	-51.718559	104.876035	-51.718559	104.876035	-0.152885	-105.421456
4.600000	-0.096785	-66.349824	-51.463005	103.288952	-51.463005	103.288952	-0.155276	-106.491496
4.650000	-0.098255	-67.015998	-51.211198	101.702119	-51.211198	101.702119	-0.157701	-107.560421
4.700000	-0.099744	-67.680791	-50.963055	100.115605	-50.963055	100.115605	-0.160159	-108.628290
4.750000	-0.101253	-68.344203	-50.718497	98.529481	-50.718497	98.529481	-0.162653	-109.695163
4.800000	-0.102782	-69.006234	-50.477446	96.943812	-50.477446	96.943812	-0.165182	-110.761101
4.850000	-0.104332	-69.666885	-50.239829	95.358665	-50.239829	95.358665	-0.167748	-111.826167
4.900000	-0.105903	-70.326156	-50.005574	93.774103	-50.005574	93.774103	-0.170350	-112.890424
4.950000	-0.107495	-70.984050	-49.774612	92.190189	-49.774612	92.190189	-0.172989	-113.953938
5.000000	-0.109109	-71.640568	-49.546875	90.606983	-49.546875	90.606983	-0.175667	-115.016776
5.050000	-0.110746	-72.295652	-49.322184	89.024582	-49.322184	89.024582	-0.178385	-116.078980
5.100000	-0.112406	-72.949364	-49.100600	87.443012	-49.100600	87.443012	-0.181142	-117.140650
5.150000	-0.114088	-73.601707	-48.882061	85.862329	-48.882061	85.862329	-0.183939	-118.201855
5.200000	-0.115794	-74.252682	-48.666506	84.282590	-48.666506	84.282590	-0.186776	-119.262668
5.250000	-0.117524	-74.902295	-48.453879	82.703848	-48.453879	82.703848	-0.189655	-120.323159
5.300000	-0.119277	-75.550546	-48.244123	81.126155	-48.244123	81.126155	-0.192575	-121.383404
5.350000	-0.121055	-76.197441	-48.037183	79.549562	-48.037183	79.549562	-0.195537	-122.443476
5.400000	-0.122858	-76.842982	-47.833007	77.974119	-47.833007	77.974119	-0.198542	-123.503452
5.450000	-0.124687	-77.487174	-47.631542	76.399873	-47.631542	76.399873	-0.201591	-124.563409
5.500000	-0.126541	-78.130021	-47.432738	74.826872	-47.432738	74.826872	-0.204683	-125.623426
5.550000	-0.128421	-78.771527	-47.236547	73.255161	-47.236547	73.255161	-0.207819	-126.683582
5.600000	-0.130327	-79.411697	-47.042920	71.684783	-47.042920	71.684783	-0.211001	-127.743958
5.650000	-0.132260	-80.050536	-46.851811	70.115780	-46.851811	70.115780	-0.214228	-128.804636
5.700000	-0.134221	-80.688050	-46.663175	68.548193	-46.663175	68.548193	-0.217500	-129.865700
5.750000	-0.136209	-81.324244	-46.476968	66.982061	-46.476968	66.982061	-0.220819	-130.927234
5.800000	-0.138225	-81.959122	-46.293146	65.417422	-46.293146	65.417422	-0.224184	-131.989324
5.850000	-0.140270	-82.592692	-46.111667	63.854312	-46.111667	63.854312	-0.227597	-133.052057
5.900000	-0.142343	-83.224959	-45.932491	62.292765	-45.932491	62.292765	-0.231057	-134.115521
5.950000	-0.144446	-83.855930	-45.755578	60.732815	-45.755578	60.732815	-0.234566	-135.179806
6.000000	-0.146579	-84.485611	-45.580888	59.174493	-45.580888	59.174493	-0.238122	-136.245002
6.050000	-0.148741	-85.114008	-45.408384	57.617830	-45.408384	57.617830	-0.241728	-137.311203
6.100000	-0.150934	-85.741130	-45.238028	56.062855	-45.238028	56.062855	-0.245382	-138.378500
6.150000	-0.153158	-86.366982	-45.069784	54.509595	-45.069784	54.509595	-0.249086	-139.446990
6.200000	-0.155413	-86.991572	-44.903618	52.958077	-44.903618	52.958077	-0.252839	-140.516767
6.250000	-0.157700	-87.614909	-44.739494	51.408326	-44.739494	51.408326	-0.256643	-141.587929
6.300000	-0.160020	-88.236945	-44.577336	49.860445	-44.577336	49.860445	-0.260499	-142.660645
6.350000	-0.162372	-88.857743	-44.417158	48.314380	-44.417158	48.314380	-0.264406	-143.734953
6.400000	-0.164758	-89.477312	-44.258928	46.770154	-44.258928	46.770154	-0.268363	-144.810957
6.450000	-0.167177	-90.095659	-44.102616	45.227788	-44.102616	45.227788	-0.272372	-145.888758
6.500000	-0.169629	-90.712794	-43.948191	43.687303	-43.948191	43.687303	-0.276431	-146.968462
6.550000	-0.172116	-91.328725	-43.795623	42.148719	-43.795623	42.148719	-0.280543	-148.050174
6.600000	-0.174637	-91.943461	-43.644885	40.612055	-43.644885	40.612055	-0.284705	-149.134001
6.650000	-0.177192	-92.557011	-43.495948	39.077332	-43.495948	39.077332	-0.288920	-150.220052
6.700000	-0.179783	-93.169384	-43.348785	37.544568	-43.348785	37.544568	-0.293187	-151.308437
6.750000	-0.182410	-93.780590	-43.203370	36.013784	-43.203370	36.013784	-0.297505	-152.399268
6.800000	-0.185073	-94.390639	-43.059677	34.484998	-43.059677	34.484998	-0.301876	-153.492659
6.850000	-0.187772	-94.999539	-42.917683	32.958231	-42.917683	32.958231	-0.306298	-154.588722
6.900000	-0.190508	-95.607302	-42.777363	31.433503	-42.777363	31.433503	-0.310774	-155.687577
6.950000	-0.193280	-96.213937	-42.638693	29.910836	-42.638693	29.910836	-0.315301	-156.789338
7.000000	-0.196091	-96.819455	-42.501651	28.390252	-42.501651	28.390252	-0.319881	-157.894127
7.050000	-0.198939	-97.423866	-42.366216	26.871774	-42.366216	26.871774	-0.324513	-159.002064
7.100000	-0.201826	-98.027181	-42.232366	25.355427	-42.232366	25.355427	-0.329198	-160.113272
7.150000	-0.204751	-98.629410	-42.100081	23.841238	-42.100081	23.841238	-0.333935	-161.227875
7.200000	-0.207716	-99.230565	-41.969341	22.329233	-41.969341	22.329233	-0.338725	-162.345999
7.250000	-0.210719	-99.830657	-41.840127	20.819443	-41.840127	20.819443	-0.343567	-163.467771
7.300000	-0.213763	-100.429697	-41.712420	19.311900	-41.712420	19.311900	-0.348462	-164.593321
7.350000	-0.216846	-101.027696	-41.586202	17.806638	-41.586202	17.806638	-0.353409	-165.722780
7.400000	-0.219970	-101.624666	-41.461456	16.303694	-41.461456	16.303694	-0.358409	-166.856280
7.450000	-0.223135	-102.220619	-41.338165	14.803108	-41.338165	14.803108	-0.363461	-167.993956
7.500000	-0.226341	-102.815566	-41.216313	13.304923	-41.216313	13.304923	-0.368566	-169.135944
7.550000	-0.229590	-103.409478	-41.095873	11.809292	-41.095873	11.809292	-0.373726	-170.282582
7.600000	-0.232881	-104.002411	-40.976843	10.316162	-40.976843	10.316162	-0.378939	-171.433823
7.650000	-0.236214	-104.594375	-40.859208	8.825586	-40.859208	8.825586	-0.384204	-172.589809
7.700000	-0.239590	-105.185385	-40.742952	7.337622	-40.742952	7.337622	-0.389522	-173.750684
7.750000	-0.243008	-105.775453	-40.628062	5.852330	-40.628062	5.852330	-0.394893	-174.916593
7.800000	-0.246470	-106.364592	-40.514524	4.369777	-40.514524	4.369777	-0.400317	-176.087684
7.850000	-0.249975	-106.952815	-40.402325	2.890033	-40.402325	2.890033	-0.405794	-177.264107
7.900000	-0.253524	-107.540134	-40.291450	1.413172	-40.291450	1.413172	-0.411325	-178.446013
7.950000	-0.257117	-108.126564	-40.181887	-0.060725	-40.181887	-0.060725	-0.416910	-179.633555
8.000000	-0.260754	-108.712118	-40.073623	-1.531574	-40.073623	-1.531574	-0.422548	179.173111
8.050000	-0.264436	-109.296809	-39.966645	-2.999284	-39.966645	-2.999284	-0.428241	177.973828
8.100000	-0.268163	-109.880652	-39.860941	-4.463762	-39.860941	-4.463762	-0.433988	176.768436
8.150000	-0.271936	-110.463660	-39.756498	-5.924905	-39.756498	-5.924905	-0.439791	175.556774
8.200000	-0.275754	-111.045847	-39.653303	-7.382607	-39.653303	-7.382607	-0.445649	174.338679
8.250000	-0.279617	-111.627228	-39.551343	-8.836757	-39.551343	-8.836757	-0.451564	173.113984
8.300000	-0.283527	-112.207817	-39.450607	-10.287236	-39.450607	-10.287236	-0.457536	171.882522
8.350000	-0.287483	-112.787628	-39.351082	-11.733919	-39.351082	-11.733919	-0.463565	170.644123
8.400000	-0.291486	-113.366677	-39.252754	-13.176678	-39.252754	-13.176678	-0.469653	169.398616
8.450000	-0.295536	-113.944978	-39.155610	-14.615374	-39.155610	-14.615374	-0.475800	168.145825
8.500000	-0.299633	-114.522546	-39.059638	-16.049866	-39.059638	-16.049866	-0.482007	166.885576
8.550000	-0.303777	-115.099397	-38.964823	-17.480005	-38.964823	-17.480005	-0.488276	165.617689
8.600000	-0.307969	-115.675546	-38.871152	-18.905634	-38.871152	-18.905634	-0.494608	164.341983
8.650000	-0.312209	-116.251008	-38.778611	-20.326593	-38.778611	-20.326593	-0.501003	163.058276
8.700000	-0.316496	-116.825799	-38.687184	-21.742711	-38.687184	-21.742711	-0.507464	161.766383
8.750000	-0.320833	-117.399935	-38.596857	-23.153815	-38.596857	-23.153815	-0.513992	160.466116
8.800000	-0.325219	-117.973404	-38.507621	-24.559487	-38.507621	-24.559487	-0.520591	159.156903
8.850000	-0.329655	-118.546253	-38.419453	-25.959756	-38.419453	-25.959756	-0.527260	157.838918
8.900000	-0.334139	-119.118496	-38.332337	-27.354426	-38.332337	-27.354426	-0.534002	156.511964
8.950000	-0.338672	-119.690152	-38.246255	-28.743295	-38.246255	-28.743295	-0.540818	155.175845
9.000000	-0.343255	-120.261235	-38.161188	-30.126153	-38.161188	-30.126153	-0.547710	153.830362
9.050000	-0.347887	-120.831763	-38.077119	-31.502784	-38.077119	-31.502784	-0.554680	152.475313
9.100000	-0.352569	-121.401754	-37.994028	-32.872967	-37.994028	-32.872967	-0.561731	151.110494
9.150000	-0.357301	-121.971225	-37.911895	-34.236471	-37.911895	-34.236471	-0.568864	149.735698
9.200000	-0.362082	-122.540192	-37.830698	-35.593061	-37.830698	-35.593061	-0.576082	148.350718
9.250000	-0.366914	-123.108674	-37.750417	-36.942494	-37.750417	-36.942494	-0.583388	146.955343
9.300000	-0.371796	-123.676689	-37.671028	-38.284522	-37.671028	-38.284522	-0.590784	145.549359
9.350000	-0.376729	-124.244254	-37.592509	-39.618888	-37.592509	-39.618888	-0.598272	144.132552
9.400000	-0.381712	-124.811388	-37.514836	-40.945331	-37.514836	-40.945331	-0.605855	142.704703
9.450000	-0.386746	-125.378108	-37.437983	-42.263582	-37.437983	-42.263582	-0.613534	141.265595
9.500000	-0.391830	-125.944435	-37.361926	-43.573366	-37.361926	-43.573366	-0.621312	139.815005
9.550000	-0.396966	-126.510386	-37.286638	-44.874399	-37.286638	-44.874399	-0.629191	138.352710
9.600000	-0.402152	-127.075980	-37.212092	-46.166394	-37.212092	-46.166394	-0.637173	136.878487
9.650000	-0.407390	-127.641237	-37.138259	-47.449054	-37.138259	-47.449054	-0.645260	135.392109
9.700000	-0.412678	-128.206176	-37.065112	-48.722077	-37.065112	-48.722077	-0.653452	133.893348
9.750000	-0.418018	-128.770817	-36.992621	-49.985154	-36.992621	-49.985154	-0.661751	132.381977
9.800000	-0.423409	-129.335179	-36.920755	-51.237967	-36.920755	-51.237967	-0.670156	130.857767
9.850000	-0.428852	-129.899283	-36.849484	-52.480194	-36.849484	-52.480194	-0.678669	129.320489
9.900000	-0.434346	-130.463149	-36.778777	-53.711503	-36.778777	-53.711503	-0.687288	127.769915
9.950000	-0.439891	-131.026798	-36.708601	-54.931556	-36.708601	-54.931556	-0.696011	126.205816
10.000000	-0.445488	-131.590249	-36.638924	-56.140005	-36.638924	-56.140005	-0.704838	124.627965
