! freq	dB(S11)	phase(S11)	dB(S12)	phase(S12)	
!     	dB(S21)	phase(S21)	dB(S22)	phase(S22)	
!S-par simulation data
#  GHz  S  DB  R 50
0.000000	-151.587098	180.000000	0.000000	0.000000	-0.000000	0.000000	-6153.053111	0.000000
0.050000	-30.489366	-93.679334	-0.009235	-3.516629	-0.009235	-3.516629	-30.488628	-93.582637
0.100000	-24.494566	-97.334059	-0.026913	-6.986021	-0.026913	-6.986021	-24.493968	-97.139988
0.150000	-21.012837	-100.947398	-0.051096	-10.435749	-0.051096	-10.435749	-21.012351	-100.655147
0.200000	-18.566282	-104.511784	-0.082359	-13.866731	-0.082359	-13.866731	-18.565811	-104.120921
0.250000	-16.689807	-108.028187	-0.120416	-17.276857	-0.120416	-17.276857	-16.689249	-107.538774
0.300000	-15.176213	-111.500169	-0.164984	-20.664113	-0.164984	-20.664113	-15.175508	-110.912561
0.350000	-13.913963	-114.933076	-0.215583	-24.027430	-0.215583	-24.027430	-13.913098	-114.247662
0.400000	-12.837276	-118.329880	-0.271934	-27.364932	-0.271934	-27.364932	-12.836273	-117.546941
0.450000	-11.904777	-121.691083	-0.333911	-30.673506	-0.333911	-30.673506	-11.903678	-120.810719
0.500000	-11.085974	-125.019413	-0.400870	-33.952822	-0.400870	-33.952822	-11.084825	-124.041532
0.550000	-10.360125	-128.315095	-0.472418	-37.201356	-0.472418	-37.201356	-10.358968	-127.239452
0.600000	-9.712891	-131.576393	-0.548282	-40.416229	-0.548282	-40.416229	-9.711762	-130.402603
0.650000	-9.131568	-134.804168	-0.627868	-43.597531	-0.627868	-43.597531	-9.130491	-133.531765
0.700000	-8.606673	-137.998432	-0.710694	-46.744867	-0.710694	-46.744867	-8.605663	-136.626899
0.750000	-8.131396	-141.157902	-0.796362	-49.856701	-0.796362	-49.856701	-8.130458	-139.686659
0.800000	-7.699547	-144.282584	-0.884391	-52.932932	-0.884391	-52.932932	-7.698679	-142.711027
0.850000	-7.305819	-147.373014	-0.974309	-55.974084	-0.974309	-55.974084	-7.305014	-145.700528
0.900000	-6.945920	-150.429588	-1.065684	-58.980574	-1.065684	-58.980574	-6.945166	-148.655545
0.950000	-6.616308	-153.452668	-1.158109	-61.952812	-1.158109	-61.952812	-6.615593	-151.576430
1.000000	-6.313881	-156.442942	-1.251193	-64.891547	-1.251193	-64.891547	-6.313189	-154.463856
1.050000	-6.035947	-159.401270	-1.344568	-67.797706	-1.344568	-67.797706	-6.035265	-157.318673
1.100000	-5.780162	-162.328666	-1.437893	-70.672372	-1.437893	-70.672372	-5.779475	-160.141880
1.150000	-5.544466	-165.226283	-1.530848	-73.516761	-1.530848	-73.516761	-5.543763	-162.934613
1.200000	-5.327042	-168.095391	-1.623142	-76.332205	-1.623142	-76.332205	-5.326313	-165.698121
1.250000	-5.126281	-170.937361	-1.714506	-79.120129	-1.714506	-79.120129	-5.125515	-168.433754
1.300000	-4.940969	-173.753124	-1.804645	-81.881505	-1.804645	-81.881505	-4.940161	-171.142402
1.350000	-4.769577	-176.544798	-1.893382	-84.618504	-1.893382	-84.618504	-4.768721	-173.826173
1.400000	-4.610961	-179.313963	-1.980520	-87.332742	-1.980520	-87.332742	-4.610053	-176.486619
1.450000	-4.464091	177.937758	-2.065882	-90.025872	-2.065882	-90.025872	-4.463130	-179.125336
1.500000	-4.328483	175.209698	-2.149159	-92.698581	-2.149159	-92.698581	-4.327468	178.257084
1.550000	-4.202477	172.498297	-2.230485	-95.354469	-2.230485	-95.354469	-4.201406	175.657024
1.600000	-4.085692	169.802730	-2.309622	-97.994371	-2.309622	-97.994371	-4.084568	173.073723
1.650000	-3.977448	167.121304	-2.386468	-100.619996	-2.386468	-100.619996	-3.976270	170.505510
1.700000	-3.876392	164.451055	-2.461292	-103.234334	-2.461292	-103.234334	-3.875161	167.949330
1.750000	-3.783723	161.793411	-2.533176	-105.835938	-2.533176	-105.835938	-3.782440	165.406901
1.800000	-3.697466	159.144166	-2.602772	-108.429047	-2.602772	-108.429047	-3.696131	162.873806
1.850000	-3.617826	156.502616	-2.669677	-111.014363	-2.669677	-111.014363	-3.616439	160.349472
1.900000	-3.544059	153.866699	-2.734033	-113.593960	-2.734033	-113.593960	-3.542619	157.831789
1.950000	-3.475778	151.234760	-2.795818	-116.169500	-2.795818	-116.169500	-3.474283	155.319108
2.000000	-3.412903	148.605323	-2.854842	-118.742462	-2.854842	-118.742462	-3.411352	152.810019
2.050000	-3.354580	145.976587	-2.911452	-121.314663	-2.911452	-121.314663	-3.352970	150.302599
2.100000	-3.301254	143.346865	-2.965136	-123.887789	-2.965136	-123.887789	-3.299582	147.795335
2.150000	-3.251852	140.714834	-3.016479	-126.463185	-3.016479	-126.463185	-3.250115	145.286697
2.200000	-3.206794	138.078294	-3.065003	-129.043057	-3.065003	-129.043057	-3.204987	142.774647
2.250000	-3.165341	135.436274	-3.111125	-131.628393	-3.111125	-131.628393	-3.163460	140.258060
2.300000	-3.127545	132.786663	-3.154672	-134.221325	-3.154672	-134.221325	-3.125584	137.734875
2.350000	-3.093135	130.127996	-3.195744	-136.823339	-3.195744	-136.823339	-3.091090	135.203578
2.400000	-3.061799	127.459035	-3.234501	-139.435696	-3.234501	-139.435696	-3.059664	132.662862
2.450000	-3.033641	124.777022	-3.270762	-142.061191	-3.270762	-142.061191	-3.031412	130.110006
2.500000	-3.008059	122.082369	-3.304978	-144.699429	-3.304978	-144.699429	-3.005731	127.545249
2.550000	-2.985451	119.370203	-3.336733	-147.355351	-3.336733	-147.355351	-2.983018	124.963820
2.600000	-2.965120	116.642270	-3.366601	-150.027219	-3.366601	-150.027219	-2.962578	122.367245
2.650000	-2.947286	113.894060	-3.394348	-152.719621	-3.394348	-152.719621	-2.944631	119.751041
2.700000	-2.931585	111.125713	-3.420280	-155.432443	-3.420280	-155.432443	-2.928813	117.115207
2.750000	-2.917954	108.334578	-3.444441	-158.168405	-3.444441	-158.168405	-2.915062	114.457013
2.800000	-2.906288	105.518314	-3.466929	-160.929914	-3.466929	-160.929914	-2.903272	111.774018
2.850000	-2.896302	102.676961	-3.488009	-163.716957	-3.488009	-163.716957	-2.893160	109.066124
2.900000	-2.888077	99.804734	-3.507642	-166.535456	-3.507642	-166.535456	-2.884807	106.327424
2.950000	-2.881195	96.904662	-3.526221	-169.382350	-3.526221	-169.382350	-2.877795	103.560799
3.000000	-2.875768	93.968316	-3.543721	-172.266260	-3.543721	-172.266260	-2.872237	100.757615
3.050000	-2.871415	90.999201	-3.560509	-175.183626	-3.560509	-175.183626	-2.867752	97.921250
3.100000	-2.868090	87.990582	-3.576726	-178.141339	-3.576726	-178.141339	-2.864295	95.044696
3.150000	-2.865560	84.942011	-3.592647	178.860142	-3.592647	178.860142	-2.861632	92.127323
3.200000	-2.863628	81.850586	-3.608545	175.817862	-3.608545	175.817862	-2.859568	89.165974
3.250000	-2.862111	78.710519	-3.624733	172.725938	-3.624733	172.725938	-2.857920	86.154506
3.300000	-2.860748	75.524032	-3.641495	169.586677	-3.641495	169.586677	-2.856428	83.095018
3.350000	-2.859282	72.277449	-3.659380	166.386218	-3.659380	166.386218	-2.854835	79.973127
3.400000	-2.857464	68.977057	-3.678616	163.131061	-3.678616	163.131061	-2.852893	76.795157
3.450000	-2.855009	65.616462	-3.699692	159.814827	-3.699692	159.814827	-2.850318	73.554255
3.500000	-2.851419	62.180362	-3.723541	156.422213	-3.723541	156.422213	-2.846615	70.234179
3.550000	-2.846482	58.673959	-3.750415	152.958725	-3.750415	152.958725	-2.841573	66.840177
3.600000	-2.839832	55.091519	-3.780972	149.418855	-3.780972	149.418855	-2.834828	63.366055
3.650000	-2.830726	51.414851	-3.816650	145.784770	-3.816650	145.784770	-2.825642	59.792452
3.700000	-2.818787	47.641310	-3.858195	142.054350	-3.858195	142.054350	-2.813641	56.116425
3.750000	-2.803633	43.766901	-3.906450	138.224196	-3.906450	138.224196	-2.798446	52.333652
3.800000	-2.784444	39.774369	-3.963254	134.278013	-3.963254	134.278013	-2.779244	48.425821
3.850000	-2.760191	35.641723	-4.031086	130.195273	-4.031086	130.195273	-2.755014	44.369667
3.900000	-2.730706	31.369530	-4.110891	125.977696	-4.110891	125.977696	-2.725592	40.165890
3.950000	-2.695284	26.941988	-4.205028	121.611289	-4.205028	121.611289	-2.690279	35.797956
4.000000	-2.652265	22.317322	-4.318654	117.057970	-4.318654	117.057970	-2.647431	31.222087
4.050000	-2.601172	17.480212	-4.455105	112.305654	-4.455105	112.305654	-2.596577	26.422671
4.100000	-2.541173	12.400508	-4.619708	107.329006	-4.619708	107.329006	-2.536891	21.368719
4.150000	-2.471526	7.041928	-4.819333	102.098150	-4.819333	102.098150	-2.467643	16.023146
4.200000	-2.391716	1.361174	-5.062888	96.578332	-5.062888	96.578332	-2.388318	10.341958
4.250000	-2.301625	-4.693364	-5.362032	90.729393	-5.362032	90.729393	-2.298798	4.273031
4.300000	-2.202061	-11.169126	-5.730224	84.517155	-5.730224	84.517155	-2.199879	-2.230916
4.350000	-2.093999	-18.161412	-6.191112	77.870395	-6.191112	77.870395	-2.092521	-9.265734
4.400000	-1.980719	-25.746347	-6.771221	70.740303	-6.771221	70.740303	-1.979956	-16.906450
4.450000	-1.867417	-34.020852	-7.507754	63.068399	-7.507754	63.068399	-1.867309	-25.248271
4.500000	-1.762022	-43.089525	-8.449921	54.799242	-8.449921	54.799242	-1.762395	-34.392788
4.550000	-1.675676	-53.067934	-9.662857	45.874629	-9.662857	45.874629	-1.676185	-44.450875
4.600000	-1.622878	-64.079438	-11.228166	36.209187	-11.228166	36.209187	-1.622924	-55.538774
4.650000	-1.621090	-76.261400	-13.233675	25.561321	-13.233675	25.561321	-1.619704	-67.783347
4.700000	-1.690166	-89.785069	-15.718697	13.032721	-15.718697	13.032721	-1.685838	-81.340736
4.750000	-1.858010	-104.959501	-18.400254	-4.760599	-18.400254	-4.760599	-1.848343	-96.496880
4.800000	-2.178059	-122.332784	-19.643663	-35.127399	-19.643663	-35.127399	-2.159133	-113.765282
4.850000	-2.805165	-142.934317	-16.575129	-73.101898	-16.575129	-73.101898	-2.769784	-134.116839
4.900000	-4.204269	-168.005140	-11.054515	-105.595269	-11.054515	-105.595269	-4.136238	-158.679871
4.950000	-7.505571	163.904854	-6.308155	-137.649713	-6.308155	-137.649713	-7.353138	174.267682
5.000000	-14.475992	146.096251	-3.565354	-168.745620	-3.565354	-168.745620	-13.945645	158.626542
5.050000	-21.715232	-163.758500	-2.396509	165.988174	-2.396509	165.988174	-20.195801	-159.094486
5.100000	-16.322433	-137.923547	-1.940763	146.873213	-1.940763	146.873213	-15.980884	-133.930066
5.150000	-13.505986	-144.986048	-1.746656	131.947754	-1.746656	131.947754	-13.353700	-138.979772
5.200000	-12.067161	-155.344994	-1.655578	119.641182	-1.655578	119.641182	-11.960266	-148.075189
5.250000	-11.165502	-165.738972	-1.614890	108.987859	-1.614890	108.987859	-11.075392	-157.484191
5.300000	-10.489486	-175.676465	-1.606738	99.426919	-1.606738	99.426919	-10.408650	-166.561817
5.350000	-9.907013	174.891035	-1.625023	90.625356	-1.625023	90.625356	-9.833731	-175.212057
5.400000	-9.357706	165.910088	-1.667278	82.355084	-1.667278	82.355084	-9.292034	176.525810
5.450000	-8.815824	157.315831	-1.732993	74.467222	-1.732993	74.467222	-8.758180	168.589020
5.500000	-8.270757	149.057324	-1.823465	66.866477	-1.823465	66.866477	-8.221456	160.923728
5.550000	-7.723546	141.064341	-1.938502	59.466245	-1.938502	59.466245	-7.682538	153.462868
5.600000	-7.176211	133.299171	-2.080171	52.220686	-2.080171	52.220686	-7.143185	146.168326
5.650000	-6.633021	125.726775	-2.250727	45.093966	-2.250727	45.093966	-6.607437	139.006592
5.700000	-6.099539	118.315721	-2.452176	38.059422	-2.452176	38.059422	-6.080688	131.949994
5.750000	-5.581404	111.040292	-2.686103	31.099163	-2.686103	31.099163	-5.568494	124.978081
5.800000	-5.083243	103.884709	-2.954503	24.204662	-2.954503	24.204662	-5.075460	118.079583
5.850000	-4.609001	96.839283	-3.259243	17.373481	-3.259243	17.373481	-4.605550	111.249335
5.900000	-4.161859	89.899662	-3.601978	10.608120	-3.601978	10.608120	-4.161992	104.487338
5.950000	-3.744315	83.066882	-3.984270	3.915652	-3.984270	3.915652	-3.747340	97.798459
6.000000	-3.358332	76.346642	-4.407405	-2.692869	-4.407405	-2.692869	-3.363619	91.191793
6.050000	-3.004455	69.742395	-4.871377	-9.208195	-4.871377	-9.208195	-3.011457	84.675052
6.100000	-2.682753	63.261693	-5.376457	-15.618425	-5.376457	-15.618425	-2.690989	78.258862
6.150000	-2.392675	56.912551	-5.922609	-21.911724	-5.922609	-21.911724	-2.401729	71.954000
6.200000	-2.133151	50.702674	-6.509557	-28.077028	-6.509557	-28.077028	-2.142664	65.770651
6.250000	-1.902689	44.638842	-7.136869	-34.104590	-7.136869	-34.104590	-1.912353	59.717812
6.300000	-1.700214	38.731831	-7.803543	-39.981112	-7.803543	-39.981112	-1.709757	53.807840
6.350000	-1.522907	32.980226	-8.509202	-45.705385	-8.509202	-45.705385	-1.532107	48.041609
6.400000	-1.368616	27.385947	-9.253535	-51.273357	-9.253535	-51.273357	-1.377283	42.422619
6.450000	-1.235160	21.949221	-10.036497	-56.682833	-10.036497	-56.682833	-1.243133	36.952513
6.500000	-1.120399	16.668706	-10.858402	-61.933313	-10.858402	-61.933313	-1.127541	31.631227
6.550000	-1.022280	11.541683	-11.720028	-67.025778	-11.720028	-67.025778	-1.028475	26.457188
6.600000	-0.939190	6.568005	-12.621282	-71.958505	-12.621282	-71.958505	-0.944337	21.431178
6.650000	-0.869053	1.740018	-13.564707	-76.737597	-13.564707	-76.737597	-0.873070	16.546601
6.700000	-0.810141	-2.949085	-14.553411	-81.368397	-14.553411	-81.368397	-0.812960	11.797536
6.750000	-0.760943	-7.506344	-15.591562	-85.856649	-15.591562	-85.856649	-0.762507	7.177721
6.800000	-0.720256	-11.937020	-16.683213	-90.206370	-16.683213	-90.206370	-0.720518	2.682567
6.850000	-0.686927	-16.247978	-17.834287	-94.423725	-17.834287	-94.423725	-0.685849	-1.694152
6.900000	-0.660006	-20.445104	-19.051096	-98.514631	-19.051096	-98.514631	-0.657558	-5.957742
6.950000	-0.638601	-24.535776	-20.342530	-102.488359	-20.342530	-102.488359	-0.634759	-10.115035
7.000000	-0.621903	-28.528429	-21.720985	-106.358516	-21.720985	-106.358516	-0.616650	-14.173982
7.050000	-0.609291	-32.430353	-23.200443	-110.143378	-23.200443	-110.143378	-0.602615	-18.141443
7.100000	-0.600246	-36.248966	-24.797908	-113.872742	-24.797908	-113.872742	-0.592141	-22.024449
7.150000	-0.594355	-39.991900	-26.533581	-117.598865	-26.533581	-117.598865	-0.584815	-25.830285
7.200000	-0.591300	-43.667137	-28.430105	-121.418747	-28.430105	-121.418747	-0.580327	-29.566630
7.250000	-0.590871	-47.283222	-30.508949	-125.520235	-30.508949	-125.520235	-0.578467	-33.241768
7.300000	-0.592973	-50.849573	-32.778254	-130.276001	-32.778254	-130.276001	-0.579144	-36.864902
7.350000	-0.597656	-54.376933	-35.195567	-136.413587	-35.195567	-136.413587	-0.582412	-40.446612
7.400000	-0.605168	-57.878063	-37.563453	-145.176285	-37.563453	-145.176285	-0.588521	-43.999561
7.450000	-0.616048	-61.368806	-39.320830	-157.738375	-39.320830	-157.738375	-0.598017	-47.539570
7.500000	-0.631304	-64.869769	-39.553921	-172.425139	-39.553921	-172.425139	-0.611917	-51.087340
7.550000	-0.653026	-68.411339	-37.860227	176.291380	-37.860227	176.291380	-0.632329	-54.673469
7.600000	-0.684587	-72.034378	-34.911940	170.188421	-34.911940	170.188421	-0.662658	-58.339436
7.650000	-0.732776	-75.801269	-31.352946	166.859216	-31.352946	166.859216	-0.709758	-62.148631
7.700000	-0.810595	-79.802606	-27.552451	163.769609	-27.552451	163.769609	-0.786774	-66.193440
7.750000	-0.951959	-84.208852	-23.537736	159.181982	-23.537736	159.181982	-0.928023	-70.648032
7.800000	-1.237926	-89.227168	-19.356457	151.573567	-19.356457	151.573567	-1.215690	-75.726571
7.850000	-1.906169	-94.801294	-14.987441	138.303600	-14.987441	138.303600	-1.891642	-81.384522
7.900000	-3.484462	-97.348325	-10.877193	114.709354	-10.877193	114.709354	-3.499677	-84.003512
7.950000	-4.630329	-84.508070	-8.720194	80.397717	-8.720194	80.397717	-4.681370	-70.830234
8.000000	-3.010623	-77.543018	-9.234211	50.888161	-9.234211	50.888161	-3.021779	-63.647360
8.050000	-1.911354	-81.010695	-10.539690	32.948562	-10.539690	32.948562	-1.900121	-67.136443
8.100000	-1.422911	-85.557543	-11.676034	22.000601	-11.676034	22.000601	-1.402050	-71.706747
8.150000	-1.187710	-89.671505	-12.530447	14.545599	-12.530447	14.545599	-1.161615	-75.827507
8.200000	-1.060786	-93.350427	-13.163895	8.904947	-13.163895	8.904947	-1.031222	-79.499812
8.250000	-0.987390	-96.710367	-13.635347	4.315653	-13.635347	4.315653	-0.955216	-82.842484
8.300000	-0.941193	-99.859400	-13.999816	0.333413	-13.999816	0.333413	-0.906852	-85.966018
8.350000	-0.914497	-102.820022	-14.265890	-3.159683	-14.265890	-3.159683	-0.878307	-88.892101
8.400000	-0.896970	-105.674202	-14.479183	-6.398736	-14.479183	-6.398736	-0.859088	-91.705418
8.450000	-0.886684	-108.432259	-14.645092	-9.421496	-14.645092	-9.421496	-0.847235	-94.415794
8.500000	-0.881391	-111.114247	-14.775073	-12.283019	-14.775073	-12.283019	-0.840464	-97.043533
8.550000	-0.879674	-113.734644	-14.877454	-15.020498	-14.877454	-15.020498	-0.837337	-99.603274
8.600000	-0.880610	-116.304231	-14.958385	-17.659943	-14.958385	-17.659943	-0.836915	-102.105891
8.650000	-0.883569	-118.831269	-15.022478	-20.220098	-15.022478	-20.220098	-0.838559	-104.559704
8.700000	-0.888113	-121.322267	-15.073236	-22.714845	-15.073236	-22.714845	-0.841823	-106.971246
8.750000	-0.893928	-123.782479	-15.113352	-25.154716	-15.113352	-25.154716	-0.846389	-109.345776
8.800000	-0.900822	-126.215271	-15.144625	-27.546163	-15.144625	-27.546163	-0.852062	-111.686379
8.850000	-0.908576	-128.625573	-15.169119	-29.897867	-15.169119	-29.897867	-0.858620	-113.998230
8.900000	-0.917066	-131.016492	-15.188108	-32.214953	-15.188108	-32.214953	-0.865937	-116.284403
8.950000	-0.926196	-133.390762	-15.202622	-34.501667	-15.202622	-34.501667	-0.873915	-118.547592
9.000000	-0.935894	-135.750830	-15.213500	-36.761591	-15.213500	-36.761591	-0.882482	-120.790196
9.050000	-0.946101	-138.098913	-15.221442	-38.997790	-15.221442	-38.997790	-0.891579	-123.014383
9.100000	-0.956776	-140.437049	-15.227036	-41.212929	-15.227036	-41.212929	-0.901162	-125.222134
9.150000	-0.967884	-142.767135	-15.230788	-43.409345	-15.230788	-43.409345	-0.911199	-127.415284
9.200000	-0.979402	-145.090947	-15.233147	-45.589111	-15.233147	-45.589111	-0.921663	-129.595549
9.250000	-0.991313	-147.410172	-15.234519	-47.754062	-15.234519	-47.754062	-0.932538	-131.764551
9.300000	-1.003604	-149.726420	-15.235284	-49.905818	-15.235284	-49.905818	-0.943812	-133.923834
9.350000	-1.016271	-152.041240	-15.235813	-52.045781	-15.235813	-52.045781	-0.955477	-136.074879
9.400000	-1.029312	-154.356131	-15.236471	-54.175115	-15.236471	-54.175115	-0.967533	-138.219118
9.450000	-1.042731	-156.672551	-15.237637	-56.294703	-15.237637	-56.294703	-0.979981	-140.357942
9.500000	-1.056534	-158.991926	-15.239700	-58.405088	-15.239700	-58.405088	-0.992829	-142.492710
9.550000	-1.070732	-161.315653	-15.243069	-60.506386	-15.243069	-60.506386	-1.006085	-144.624758
9.600000	-1.085342	-163.645108	-15.248169	-62.598175	-15.248169	-62.598175	-1.019763	-146.755402
9.650000	-1.100380	-165.981650	-15.255432	-64.679367	-15.255432	-64.679367	-1.033881	-148.885943
9.700000	-1.115870	-168.326621	-15.265279	-66.748069	-15.265279	-66.748069	-1.048459	-151.017675
9.750000	-1.131837	-170.681350	-15.278089	-68.801461	-15.278089	-68.801461	-1.063521	-153.151884
9.800000	-1.148311	-173.047157	-15.294156	-70.835723	-15.294156	-70.835723	-1.079097	-155.289855
9.850000	-1.165326	-175.425352	-15.313630	-72.846057	-15.313630	-72.846057	-1.095216	-157.432873
9.900000	-1.182918	-177.817232	-15.336455	-74.826872	-15.336455	-74.826872	-1.111915	-159.582225
9.950000	-1.201129	179.775910	-15.362301	-76.772169	-15.362301	-76.772169	-1.129234	-161.739202
10.000000	-1.220004	177.352795	-15.390521	-78.676162	-15.390521	-78.676162	-1.147216	-163.905103
