! freq	dB(S11)	phase(S11)	dB(S12)	phase(S12)	
!     	dB(S21)	phase(S21)	dB(S22)	phase(S22)	
!S-par simulation data
#  GHz  S  DB  R 50
0.000000	-81.678162	0.000000	-0.000716	0.000000	-0.000716	0.000000	-81.678162	0.000000
0.050000	-36.835289	-92.574990	-0.005963	-3.444549	-0.005963	-3.444549	-36.864450	-93.434974
0.100000	-30.851014	-95.799254	-0.015562	-6.850166	-0.015562	-6.850166	-30.867023	-97.420941
0.150000	-27.361713	-98.972348	-0.025645	-10.237129	-0.025645	-10.237129	-27.372311	-101.335560
0.200000	-24.891675	-102.109011	-0.036578	-13.618483	-0.036578	-13.618483	-24.901038	-105.232811
0.250000	-22.980111	-105.210775	-0.048840	-16.997562	-0.048840	-16.997562	-22.989607	-109.112265
0.300000	-21.422261	-108.284285	-0.062603	-20.375180	-0.062603	-20.375180	-21.432261	-112.974453
0.350000	-20.109351	-111.335241	-0.077991	-23.751807	-0.077991	-23.751807	-20.119890	-116.821819
0.400000	-18.975791	-114.369868	-0.094923	-27.128005	-0.094923	-27.128005	-18.986769	-120.659022
0.450000	-17.979882	-117.391063	-0.113453	-30.504282	-0.113453	-30.504282	-17.991164	-124.489428
0.500000	-17.092775	-120.401524	-0.133537	-33.881155	-0.133537	-33.881155	-17.104230	-128.316477
0.550000	-16.293918	-123.402892	-0.155153	-37.259101	-0.155153	-37.259101	-16.305441	-132.142838
0.600000	-15.568346	-126.396032	-0.178338	-40.638668	-0.178338	-40.638668	-15.579859	-135.970891
0.650000	-14.904166	-129.382176	-0.203005	-44.020267	-0.203005	-44.020267	-14.915628	-139.802479
0.700000	-14.292588	-132.361721	-0.229210	-47.404537	-0.229210	-47.404537	-14.303985	-143.639555
0.750000	-13.726185	-135.335541	-0.256892	-50.791967	-0.256892	-50.791967	-13.737528	-147.483540
0.800000	-13.199222	-138.304126	-0.286089	-54.183306	-0.286089	-54.183306	-13.210543	-151.336195
0.850000	-12.706660	-141.268333	-0.316748	-57.579113	-0.316748	-57.579113	-12.718000	-155.198652
0.900000	-12.244556	-144.228773	-0.348921	-60.980332	-0.348921	-60.980332	-12.255967	-159.072692
0.950000	-11.809309	-147.186366	-0.382577	-64.387643	-0.382577	-64.387643	-11.820847	-162.959364
1.000000	-11.398010	-150.141958	-0.417769	-67.802128	-0.417769	-67.802128	-11.409730	-166.860372
1.050000	-11.008006	-153.096573	-0.454506	-71.224687	-0.454506	-71.224687	-11.019963	-170.776906
1.100000	-10.637033	-156.051303	-0.492846	-74.656486	-0.492846	-74.656486	-10.649279	-174.710520
1.150000	-10.283063	-159.007371	-0.532850	-78.098733	-0.532850	-78.098733	-10.295646	-178.662694
1.200000	-9.944271	-161.966077	-0.574575	-81.552564	-0.574575	-81.552564	-9.957234	177.365339
1.250000	-9.619041	-164.928884	-0.618124	-85.019398	-0.618124	-85.019398	-9.632420	173.371984
1.300000	-9.305893	-167.897492	-0.663635	-88.500907	-0.663635	-88.500907	-9.319726	169.355389
1.350000	-9.003469	-170.873591	-0.711219	-91.998436	-0.711219	-91.998436	-9.017789	165.314351
1.400000	-8.710536	-173.859089	-0.761036	-95.513608	-0.761036	-95.513608	-8.725373	161.247341
1.450000	-8.425960	-176.856061	-0.813272	-99.048135	-0.813272	-99.048135	-8.441346	157.152816
1.500000	-8.148694	-179.866763	-0.868140	-102.603821	-0.868140	-102.603821	-8.164662	153.029224
1.550000	-7.877773	177.106361	-0.925889	-106.182564	-0.925889	-106.182564	-7.894357	148.875002
1.600000	-7.612304	174.060675	-0.986800	-109.786355	-0.986800	-109.786355	-7.629540	144.688581
1.650000	-7.351462	170.993337	-1.051198	-113.417279	-1.051198	-113.417279	-7.369391	140.468385
1.700000	-7.094450	167.901035	-1.119485	-117.077822	-1.119485	-117.077822	-7.113112	136.212476
1.750000	-6.840584	164.780564	-1.192068	-120.770167	-1.192068	-120.770167	-6.860024	131.919408
1.800000	-6.589257	161.628580	-1.269406	-124.496545	-1.269406	-124.496545	-6.609517	127.587762
1.850000	-6.339910	158.441419	-1.352034	-128.259420	-1.352034	-128.259420	-6.361031	123.215946
1.900000	-6.092049	155.215227	-1.440557	-132.061341	-1.440557	-132.061341	-6.114069	118.802365
1.950000	-5.845253	151.945971	-1.535657	-135.904939	-1.535657	-135.904939	-5.868204	114.345419
2.000000	-5.599174	148.629458	-1.638104	-139.792913	-1.638104	-139.792913	-5.623080	109.843511
2.050000	-5.353539	145.261356	-1.748768	-143.728021	-1.748768	-143.728021	-5.378412	105.295041
2.100000	-5.108123	141.836928	-1.868672	-147.713315	-1.868672	-147.713315	-5.133967	100.698179
2.150000	-4.862788	138.351267	-1.998984	-151.751917	-1.998984	-151.751917	-4.889592	96.051081
2.200000	-4.617586	134.800353	-2.140884	-155.846140	-2.140884	-155.846140	-4.645323	91.352665
2.250000	-4.372599	131.179638	-2.295791	-159.998719	-2.295791	-159.998719	-4.401231	86.601436
2.300000	-4.128010	127.484637	-2.465311	-164.212286	-2.465311	-164.212286	-4.157483	81.795970
2.350000	-3.884103	123.710996	-2.651259	-168.489301	-2.651259	-168.489301	-3.914354	76.934949
2.400000	-3.641272	119.854565	-2.855693	-172.831986	-2.855693	-172.831986	-3.672226	72.017201
2.450000	-3.400019	115.911473	-3.080948	-177.242225	-3.080948	-177.242225	-3.431596	67.041757
2.500000	-3.160957	111.878227	-3.329679	178.278531	-3.329679	178.278531	-3.193073	62.007911
2.550000	-2.924775	107.750424	-3.605205	173.728385	-3.605205	173.728385	-2.957344	56.914443
2.600000	-2.692379	103.526968	-3.910744	169.108208	-3.910744	169.108208	-2.725320	51.762279
2.650000	-2.464713	99.206172	-4.250268	164.418765	-4.250268	164.418765	-2.497952	46.552024
2.700000	-2.242816	94.787177	-4.628361	159.661923	-4.628361	159.661923	-2.276286	41.284903
2.750000	-2.027809	90.270076	-5.050351	154.840888	-5.050351	154.840888	-2.061455	35.962873
2.800000	-1.820878	85.656020	-5.522494	149.960482	-5.522494	149.960482	-1.854655	30.588710
2.850000	-1.623251	80.947323	-6.052216	145.027507	-6.052216	145.027507	-1.657129	25.166101
2.900000	-1.436175	76.147531	-6.648479	140.051198	-6.648479	140.051198	-1.470133	19.699704
2.950000	-1.260981	71.260697	-7.322612	135.043737	-7.322612	135.043737	-1.295005	14.194888
3.000000	-1.098852	66.293501	-8.088341	130.022142	-8.088341	130.022142	-1.132937	8.658672
3.050000	-0.950857	61.253759	-8.963473	125.009002	-8.963473	125.009002	-0.984997	3.098920
3.100000	-0.817987	56.149998	-9.972104	120.035558	-9.972104	120.035558	-0.852175	-2.475835
3.150000	-0.701084	50.991721	-11.147960	115.147577	-11.147960	115.147577	-0.735311	-8.056352
3.200000	-0.600820	45.789197	-12.540741	110.417252	-12.540741	110.417252	-0.635066	-13.632879
3.250000	-0.517668	40.553217	-14.228635	105.970600	-14.228635	105.970600	-0.551907	-19.195385
3.300000	-0.451898	35.294811	-16.345741	102.059556	-16.345741	102.059556	-0.486095	-24.733818
3.350000	-0.404149	30.024922	-19.150597	99.382611	-19.150597	99.382611	-0.438257	-30.236911
3.400000	-0.373299	24.754708	-23.241191	100.124041	-23.241191	100.124041	-0.407266	-35.697399
3.450000	-0.359405	19.493850	-30.152626	119.688255	-30.152626	119.688255	-0.393174	-41.106002
3.500000	-0.361974	14.251440	-31.629963	-157.146431	-31.629963	-157.146431	-0.395485	-46.455148
3.550000	-0.380388	9.035496	-24.281720	-129.157215	-24.281720	-129.157215	-0.413577	-51.738367
3.600000	-0.413933	3.852817	-20.003181	-127.202525	-20.003181	-127.202525	-0.446738	-56.950391
3.650000	-0.461841	-1.291125	-17.169468	-129.367539	-17.169468	-129.367539	-0.494200	-62.087211
3.700000	-0.523322	-6.392239	-15.079812	-132.831940	-15.079812	-132.831940	-0.555174	-67.146073
3.750000	-0.597608	-11.447834	-13.440550	-136.844132	-13.440550	-136.844132	-0.628888	-72.125444
3.800000	-0.684205	-16.455597	-12.103770	-141.122589	-12.103770	-141.122589	-0.714840	-77.023215
3.850000	-0.782215	-21.416691	-10.982572	-145.531526	-10.982572	-145.531526	-0.812120	-81.841851
3.900000	-0.891124	-26.332632	-10.022936	-150.005970	-10.022936	-150.005970	-0.920192	-86.583006
3.950000	-1.010561	-31.206273	-9.188503	-154.510080	-9.188503	-154.510080	-1.038649	-91.249137
4.000000	-1.140329	-36.041817	-8.453530	-159.023906	-8.453530	-159.023906	-1.167245	-95.843371
4.050000	-1.280436	-40.844881	-7.799039	-163.536998	-7.799039	-163.536998	-1.305918	-100.369375
4.100000	-1.431132	-45.622620	-7.210581	-168.045102	-7.210581	-168.045102	-1.454821	-104.831224
4.150000	-1.592962	-50.383937	-6.676836	-172.548406	-6.676836	-172.548406	-1.614366	-109.233266
4.200000	-1.766612	-55.139604	-6.188435	-177.050487	-6.188435	-177.050487	-1.785071	-113.581118
4.250000	-1.953981	-59.903517	-5.738687	178.441530	-5.738687	178.441530	-1.968533	-117.876247
4.300000	-2.156758	-64.692935	-5.320837	173.917363	-5.320837	173.917363	-2.166090	-122.124554
4.350000	-2.377760	-69.529528	-4.929557	169.363067	-4.929557	169.363067	-2.380011	-126.329317
4.400000	-2.620977	-74.441347	-4.560203	164.760052	-4.560203	164.760052	-2.613465	-130.492384
4.450000	-2.892126	-79.465593	-4.208640	160.083477	-4.208640	160.083477	-2.870892	-134.612980
4.500000	-3.199582	-84.653016	-3.871135	155.299636	-3.871135	155.299636	-3.158595	-138.685492
4.550000	-3.555993	-90.075141	-3.544320	150.361676	-3.544320	150.361676	-3.485693	-142.695129
4.600000	-3.981628	-95.839066	-3.225260	145.200911	-3.225260	145.200911	-3.865968	-146.608183
4.650000	-4.510717	-102.112748	-2.911898	139.712979	-2.911898	139.712979	-4.320742	-150.350098
4.700000	-5.202900	-109.160493	-2.604510	133.741869	-2.604510	133.741869	-4.882219	-153.759160
4.750000	-6.172066	-117.430771	-2.308940	127.044084	-2.308940	127.044084	-5.598781	-156.472287
4.800000	-7.684996	-127.883990	-2.047019	119.170259	-2.047019	119.170259	-6.538963	-157.533025
4.850000	-10.472013	-142.939352	-1.888833	109.359625	-1.888833	109.359625	-7.694256	-154.459398
4.900000	-17.536227	-175.804366	-2.047310	96.418139	-2.047310	96.418139	-8.385268	-142.796201
4.950000	-15.568968	35.231819	-3.170496	79.277470	-3.170496	79.277470	-6.605393	-128.424496
5.000000	-6.464286	-9.280808	-6.756093	62.548120	-6.756093	62.548120	-3.497211	-131.339006
5.050000	-3.225046	-40.324068	-13.607460	77.554827	-13.607460	77.554827	-1.867500	-145.753918
5.100000	-2.345132	-62.644474	-11.994181	126.074374	-11.994181	126.074374	-1.596236	-159.511573
5.150000	-2.316724	-78.061565	-8.316460	131.183367	-8.316460	131.183367	-1.855720	-170.022721
5.200000	-2.558654	-89.237111	-6.356730	127.116321	-6.356730	127.116321	-2.256774	-178.212605
5.250000	-2.883785	-97.891098	-5.194003	121.827702	-5.194003	121.827702	-2.680022	174.977620
5.300000	-3.232715	-104.991782	-4.421120	116.553444	-4.421120	116.553444	-3.094841	168.977838
5.350000	-3.587305	-111.085154	-3.861977	111.492302	-3.861977	111.492302	-3.496925	163.464288
5.400000	-3.942645	-116.477142	-3.433236	106.649402	-3.433236	106.649402	-3.888402	158.254588
5.450000	-4.298249	-121.352584	-3.090494	101.993338	-3.090494	101.993338	-4.272792	153.236720
5.500000	-4.656569	-125.866601	-2.803675	97.475394	-2.803675	97.475394	-4.655654	148.328038
5.550000	-5.018190	-130.064616	-2.561055	93.078872	-2.561055	93.078872	-5.038576	143.489580
5.600000	-5.385311	-134.013429	-2.350742	88.775042	-2.350742	88.775042	-5.425099	138.682340
5.650000	-5.759754	-137.754429	-2.165425	84.544301	-2.165425	84.544301	-5.817872	133.881735
5.700000	-6.142877	-141.310297	-2.000544	80.373642	-2.000544	80.373642	-6.218818	129.068432
5.750000	-6.535436	-144.686670	-1.853589	76.255845	-1.853589	76.255845	-6.629045	124.225210
5.800000	-6.939345	-147.912788	-1.720509	72.177623	-1.720509	72.177623	-7.051040	119.342759
5.850000	-7.354110	-150.966134	-1.601440	68.139737	-1.601440	68.139737	-7.484462	114.400289
5.900000	-7.781906	-153.878460	-1.492876	64.130901	-1.492876	64.130901	-7.932026	109.397976
5.950000	-8.221687	-156.621015	-1.395330	60.153038	-1.395330	60.153038	-8.392900	104.312595
6.000000	-8.674939	-159.211293	-1.306679	56.199881	-1.306679	56.199881	-8.869035	99.144270
6.050000	-9.140854	-161.630646	-1.226779	52.271576	-1.226779	52.271576	-9.359997	93.874858
6.100000	-9.619361	-163.874668	-1.154818	48.366362	-1.154818	48.366362	-9.866181	88.494903
6.150000	-10.110465	-165.941300	-1.089948	44.482468	-1.089948	44.482468	-10.388125	82.996993
6.200000	-10.611634	-167.802192	-1.032275	40.621390	-1.032275	40.621390	-10.923862	77.356061
6.250000	-11.124501	-169.477754	-0.980376	36.779451	-0.980376	36.779451	-11.475689	71.581157
6.300000	-11.642713	-170.912450	-0.935016	32.960846	-0.935016	32.960846	-12.037945	65.625487
6.350000	-12.169059	-172.142662	-0.894606	29.160992	-0.894606	29.160992	-12.614175	59.510733
6.400000	-12.696724	-173.124661	-0.859527	25.382938	-0.859527	25.382938	-13.198297	53.195952
6.450000	-13.225374	-173.875058	-0.828926	21.624563	-0.828926	21.624563	-13.790709	46.687629
6.500000	-13.750163	-174.381920	-0.802590	17.886468	-0.802590	17.886468	-14.387150	39.967720
6.550000	-14.266293	-174.642545	-0.780223	14.168786	-0.780223	14.168786	-14.983183	33.024982
6.600000	-14.772837	-174.682682	-0.761185	10.469655	-0.761185	10.469655	-15.578169	25.873602
6.650000	-15.259756	-174.486337	-0.745567	6.791245	-0.745567	6.791245	-16.161369	18.487333
6.700000	-15.730351	-174.107578	-0.732562	3.130047	-0.732562	3.130047	-16.735996	10.909739
6.750000	-16.176845	-173.553266	-0.722141	-0.512685	-0.722141	-0.512685	-17.292662	3.137538
6.800000	-16.598574	-172.862512	-0.713917	-4.138282	-0.713917	-4.138282	-17.829346	-4.796700
6.850000	-16.994872	-172.072373	-0.707600	-7.747651	-0.707600	-7.747651	-18.343712	-12.858986
6.900000	-17.366214	-171.220899	-0.702932	-11.341664	-0.702932	-11.341664	-18.834529	-21.010237
6.950000	-17.715290	-170.345830	-0.699657	-14.921495	-0.699657	-14.921495	-19.303297	-29.206883
7.000000	-18.046657	-169.479500	-0.697527	-18.488548	-0.697527	-18.488548	-19.754238	-37.407260
7.050000	-18.365757	-168.646373	-0.696338	-22.044152	-0.696338	-22.044152	-20.193272	-45.576217
7.100000	-18.678398	-167.866571	-0.695959	-25.588994	-0.695959	-25.588994	-20.627268	-53.681588
7.150000	-18.994038	-167.134396	-0.696117	-29.126206	-0.696117	-29.126206	-21.069675	-61.723991
7.200000	-19.318986	-166.448987	-0.696754	-32.656352	-0.696754	-32.656352	-21.529895	-69.699164
7.250000	-19.661526	-165.792556	-0.697763	-36.181001	-0.697763	-36.181001	-22.021437	-77.626776
7.300000	-20.030215	-165.134362	-0.699067	-39.701751	-0.699067	-39.701751	-22.559628	-85.547945
7.350000	-20.433808	-164.429016	-0.700614	-43.220213	-0.700614	-43.220213	-23.161923	-93.530775
7.400000	-20.881190	-163.613571	-0.702381	-46.737997	-0.702381	-46.737997	-23.848467	-101.680104
7.450000	-21.381242	-162.602740	-0.704370	-50.256699	-0.704370	-50.256699	-24.642845	-110.155167
7.500000	-21.942452	-161.281378	-0.706611	-53.777882	-0.706611	-53.777882	-25.572668	-119.201951
7.550000	-22.572552	-159.468724	-0.709176	-57.303252	-0.709176	-57.303252	-26.669416	-129.274145
7.600000	-23.273340	-156.954103	-0.712141	-60.834165	-0.712141	-60.834165	-27.954759	-141.051721
7.650000	-24.038423	-153.436731	-0.715619	-64.371984	-0.715619	-64.371984	-29.412176	-155.724031
7.700000	-24.842061	-148.526342	-0.719744	-67.917976	-0.719744	-67.917976	-30.879190	-175.080493
7.750000	-25.621531	-141.780649	-0.724677	-71.473292	-0.724677	-71.473292	-31.842079	159.593113
7.800000	-26.255985	-132.875561	-0.730598	-75.038954	-0.730598	-75.038954	-31.564552	131.085184
7.850000	-26.568077	-121.980773	-0.737709	-78.615834	-0.737709	-78.615834	-30.037918	105.832343
7.900000	-26.395388	-110.121921	-0.746229	-82.204644	-0.746229	-82.204644	-27.994356	86.736138
7.950000	-25.710063	-98.919983	-0.756393	-85.805914	-0.756393	-85.805914	-25.957050	72.587648
8.000000	-24.644459	-89.677342	-0.768449	-89.419986	-0.768449	-89.419986	-24.096226	61.601627
8.050000	-23.384734	-82.823331	-0.782656	-93.046994	-0.782656	-93.046994	-22.432804	52.579741
8.100000	-22.073796	-78.141547	-0.799277	-96.686855	-0.799277	-96.686855	-20.946743	44.818027
8.150000	-20.790826	-75.212401	-0.818612	-100.339394	-0.818612	-100.339394	-19.611057	37.908617
8.200000	-19.573415	-73.611084	-0.840936	-104.004047	-0.840936	-104.004047	-18.402558	31.593685
8.250000	-18.435195	-72.998476	-0.866478	-107.679891	-0.866478	-107.679891	-17.302501	25.707581
8.300000	-17.377050	-73.137944	-0.895489	-111.365907	-0.895489	-111.365907	-16.295337	20.146058
8.350000	-16.395182	-73.857267	-0.928202	-115.060850	-0.928202	-115.060850	-15.368728	14.837416
8.400000	-15.484121	-75.030622	-0.964830	-118.763260	-0.964830	-118.763260	-14.512807	9.730959
8.450000	-14.638099	-76.564881	-1.005564	-122.471476	-1.005564	-122.471476	-13.719606	4.790012
8.500000	-13.851637	-78.389924	-1.050563	-126.183654	-1.050563	-126.183654	-12.982608	-0.012469
8.550000	-13.119748	-80.451952	-1.099957	-129.897793	-1.099957	-129.897793	-12.296418	-4.696722
8.600000	-12.437980	-82.708892	-1.153837	-133.611759	-1.153837	-133.611759	-11.656517	-9.278075
8.650000	-11.802384	-85.127243	-1.212256	-137.323323	-1.212256	-137.323323	-11.059066	-13.768246
8.700000	-11.209454	-87.679873	-1.275224	-141.030189	-1.275224	-141.030189	-10.500769	-18.176253
8.750000	-10.656064	-90.344492	-1.342712	-144.730035	-1.342712	-144.730035	-9.978760	-22.509079
8.800000	-10.139530	-93.104229	-1.414722	-148.420294	-1.414722	-148.420294	-9.490646	-26.770742
8.850000	-9.657250	-95.941267	-1.491046	-152.098864	-1.491046	-152.098864	-9.034110	-30.967066
8.900000	-9.206887	-98.842604	-1.571519	-155.763580	-1.571519	-155.763580	-8.607120	-35.101369
8.950000	-8.786295	-101.797228	-1.655937	-159.412409	-1.655937	-159.412409	-8.207838	-39.176310
9.000000	-8.393490	-104.795819	-1.744056	-163.043482	-1.744056	-163.043482	-7.834578	-43.194065
9.050000	-8.026630	-107.830540	-1.835601	-166.655125	-1.835601	-166.655125	-7.485791	-47.156456
9.100000	-7.683994	-110.894860	-1.930262	-170.245888	-1.930262	-170.245888	-7.160040	-51.065062
9.150000	-7.363978	-113.983424	-2.027706	-173.814572	-2.027706	-173.814572	-6.855986	-54.921304
9.200000	-7.064894	-117.091656	-2.127562	-177.360674	-2.127562	-177.360674	-6.572181	-58.727410
9.250000	-6.786253	-120.217617	-2.229515	179.118617	-2.229515	179.118617	-6.308423	-62.480234
9.300000	-6.525282	-123.356728	-2.333093	175.620180	-2.333093	175.620180	-6.062053	-66.188159
9.350000	-6.281923	-126.509013	-2.437935	172.146823	-2.437935	172.146823	-5.833272	-69.846969
9.400000	-6.054471	-129.672931	-2.543657	168.696884	-2.543657	168.696884	-5.620477	-73.460753
9.450000	-5.841904	-132.848357	-2.649868	165.269771	-2.649868	165.269771	-5.422753	-77.030969
9.500000	-5.643811	-136.036498	-2.756124	161.865885	-2.756124	161.865885	-5.239817	-80.556654
9.550000	-5.458297	-139.236931	-2.862218	158.481523	-2.862218	158.481523	-5.069695	-84.044267
9.600000	-5.286149	-142.453767	-2.967484	155.118637	-2.967484	155.118637	-4.913315	-87.488586
9.650000	-5.125026	-145.686030	-3.071984	151.771782	-3.071984	151.771782	-4.768106	-90.898866
9.700000	-4.975866	-148.939397	-3.174999	148.441707	-3.174999	148.441707	-4.635008	-94.270636
9.750000	-4.837067	-152.213935	-3.276603	145.124026	-3.276603	145.124026	-4.512164	-97.610571
9.800000	-4.708936	-155.514633	-3.376335	141.816967	-3.376335	141.816967	-4.399664	-100.918166
9.850000	-4.591067	-158.844377	-3.474048	138.517383	-3.474048	138.517383	-4.296790	-104.196113
9.900000	-4.483000	-162.205546	-3.569706	135.221842	-3.569706	135.221842	-4.202725	-107.447646
9.950000	-4.385562	-165.605199	-3.662880	131.927068	-3.662880	131.927068	-4.117743	-110.672452
10.000000	-4.297447	-169.041107	-3.754022	128.629619	-3.754022	128.629619	-4.040249	-113.876432
