! freq	dB(S11)	phase(S11)	dB(S12)	phase(S12)	
!     	dB(S21)	phase(S21)	dB(S22)	phase(S22)	
!S-par simulation data
#  GHz  S  DB  R 50
0.000000	-0.000000	0.000000	-372.758684	0.000000	-372.758684	0.000000	-0.000000	0.000000
0.050000	-0.000499	-0.764635	-103.735082	88.477308	-103.735082	88.477308	-0.001462	-2.404491
0.100000	-0.001626	-1.530474	-97.754367	86.961421	-97.754367	86.961421	-0.005115	-4.798927
0.150000	-0.002984	-2.295667	-94.299290	85.459214	-94.299290	85.459214	-0.009598	-7.180648
0.200000	-0.004420	-3.058874	-91.892323	83.976953	-91.892323	83.976953	-0.014015	-9.552440
0.250000	-0.005850	-3.819710	-90.073744	82.522329	-90.073744	82.522329	-0.018031	-11.917244
0.300000	-0.007204	-4.578385	-88.638999	81.103627	-88.638999	81.103627	-0.021619	-14.277041
0.350000	-0.008446	-5.335393	-87.476122	79.728206	-87.476122	79.728206	-0.024876	-16.632747
0.400000	-0.009557	-6.091151	-86.520666	78.406659	-86.520666	78.406659	-0.027891	-18.984319
0.450000	-0.010537	-6.846005	-85.734518	77.156471	-85.734518	77.156471	-0.030735	-21.331130
0.500000	-0.011406	-7.600290	-85.085586	75.993547	-85.085586	75.993547	-0.033475	-23.672825
0.550000	-0.012185	-8.354206	-84.554683	74.942059	-84.554683	74.942059	-0.036154	-26.008782
0.600000	-0.012895	-9.107871	-84.132508	74.038899	-84.132508	74.038899	-0.038798	-28.338046
0.650000	-0.013562	-9.861366	-83.807492	73.313208	-83.807492	73.313208	-0.041430	-30.660212
0.700000	-0.014209	-10.614710	-83.572979	72.799758	-83.572979	72.799758	-0.044065	-32.974778
0.750000	-0.014853	-11.367882	-83.427476	72.550667	-83.427476	72.550667	-0.046710	-35.280944
0.800000	-0.015512	-12.120833	-83.367670	72.623448	-83.367670	72.623448	-0.049370	-37.578196
0.850000	-0.016198	-12.873498	-83.389675	73.088614	-83.389675	73.088614	-0.052047	-39.866157
0.900000	-0.016920	-13.625798	-83.489786	74.040961	-83.489786	74.040961	-0.054740	-42.144404
0.950000	-0.017685	-14.377646	-83.662738	75.606147	-83.662738	75.606147	-0.057449	-44.412488
1.000000	-0.018494	-15.128955	-83.898407	77.941369	-83.898407	77.941369	-0.060169	-46.670025
1.050000	-0.019347	-15.879643	-84.178228	81.236339	-84.178228	81.236339	-0.062897	-48.916663
1.100000	-0.020242	-16.629635	-84.469515	85.698337	-84.469515	85.698337	-0.065629	-51.152082
1.150000	-0.021174	-17.378867	-84.718886	91.505677	-84.718886	91.505677	-0.068360	-53.375989
1.200000	-0.022140	-18.127284	-84.849132	98.710983	-84.849132	98.710983	-0.071087	-55.588120
1.250000	-0.023132	-18.874843	-84.768789	107.104432	-84.768789	107.104432	-0.073805	-57.788238
1.300000	-0.024145	-19.621492	-84.394691	116.121692	-84.394691	116.121692	-0.076509	-59.975864
1.350000	-0.025174	-20.367226	-83.713275	124.934131	-83.713275	124.934131	-0.079195	-62.151077
1.400000	-0.026212	-21.112031	-82.772794	132.827674	-82.772794	132.827674	-0.081861	-64.313718
1.450000	-0.027256	-21.855895	-81.658941	139.404922	-81.658941	139.404922	-0.084503	-66.463652
1.500000	-0.028301	-22.598813	-80.456728	144.591606	-80.456728	144.591606	-0.087117	-68.600770
1.550000	-0.029345	-23.340784	-79.229920	148.512158	-79.229920	148.512158	-0.089703	-70.724982
1.600000	-0.030385	-24.081805	-78.018673	151.366369	-78.018673	151.366369	-0.092257	-72.836219
1.650000	-0.031420	-24.821876	-76.845111	153.356842	-76.845111	153.356842	-0.094779	-74.934435
1.700000	-0.032448	-25.560998	-75.719738	154.659291	-75.719738	154.659291	-0.097267	-77.019600
1.750000	-0.033468	-26.299168	-74.646241	155.415975	-74.646241	155.415975	-0.099720	-79.091706
1.800000	-0.034480	-27.036386	-73.624576	155.738586	-73.624576	155.738586	-0.102138	-81.150760
1.850000	-0.035485	-27.772648	-72.652779	155.713806	-72.652779	155.713806	-0.104521	-83.196786
1.900000	-0.036482	-28.507940	-71.727467	155.406358	-71.727467	155.406358	-0.106868	-85.229687
1.950000	-0.037472	-29.242256	-70.845658	154.869865	-70.845658	154.869865	-0.109181	-87.249519
2.000000	-0.038455	-29.975600	-70.004736	154.147670	-70.004736	154.147670	-0.111461	-89.256497
2.050000	-0.039433	-30.707965	-69.201630	153.271672	-69.201630	153.271672	-0.113708	-91.250704
2.100000	-0.040406	-31.439341	-68.433488	152.267335	-68.433488	152.267335	-0.115924	-93.232240
2.150000	-0.041375	-32.169719	-67.697700	151.155159	-67.697700	151.155159	-0.118110	-95.201214
2.200000	-0.042342	-32.899089	-66.991892	149.951785	-66.991892	149.951785	-0.120267	-97.157747
2.250000	-0.043305	-33.627440	-66.313918	148.670834	-66.313918	148.670834	-0.122399	-99.101973
2.300000	-0.044268	-34.354760	-65.661836	147.323540	-65.661836	147.323540	-0.124505	-101.034033
2.350000	-0.045230	-35.081038	-65.033892	145.919236	-65.033892	145.919236	-0.126589	-102.954080
2.400000	-0.046192	-35.806261	-64.428502	144.465726	-64.428502	144.465726	-0.128652	-104.862272
2.450000	-0.047156	-36.530417	-63.844228	142.969582	-63.844228	142.969582	-0.130695	-106.758780
2.500000	-0.048121	-37.253493	-63.279768	141.436368	-63.279768	141.436368	-0.132722	-108.643780
2.550000	-0.049089	-37.975453	-62.733598	139.870215	-62.733598	139.870215	-0.134734	-110.517213
2.600000	-0.050060	-38.696306	-62.205026	138.275944	-62.205026	138.275944	-0.136732	-112.379519
2.650000	-0.051035	-39.416042	-61.693061	136.657012	-61.693061	136.657012	-0.138720	-114.230895
2.700000	-0.052015	-40.134646	-61.196796	135.016408	-61.196796	135.016408	-0.140699	-116.071543
2.750000	-0.053000	-40.852045	-60.714757	133.355783	-60.714757	133.355783	-0.142670	-117.901104
2.800000	-0.053991	-41.568337	-60.247388	131.679248	-60.247388	131.679248	-0.144636	-119.720822
2.850000	-0.054987	-42.283462	-59.793434	129.987913	-59.793434	129.987913	-0.146599	-121.530449
2.900000	-0.055991	-42.997407	-59.352244	128.283514	-59.352244	128.283514	-0.148560	-123.330206
2.950000	-0.057002	-43.710160	-58.923217	126.567581	-58.923217	126.567581	-0.150520	-125.120316
3.000000	-0.058020	-44.421712	-58.505796	124.841466	-58.505796	124.841466	-0.152482	-126.901003
3.050000	-0.059047	-45.132049	-58.099465	123.106368	-58.099465	123.106368	-0.154446	-128.672496
3.100000	-0.060082	-45.841163	-57.703743	121.363354	-57.703743	121.363354	-0.156414	-130.435025
3.150000	-0.061126	-46.549042	-57.318183	119.613375	-57.318183	119.613375	-0.158388	-132.188823
3.200000	-0.062179	-47.255677	-56.942368	117.857279	-56.942368	117.857279	-0.160368	-133.934124
3.250000	-0.063242	-47.961058	-56.575909	116.095827	-56.575909	116.095827	-0.162356	-135.671163
3.300000	-0.064315	-48.665175	-56.218441	114.329702	-56.218441	114.329702	-0.164351	-137.400178
3.350000	-0.065399	-49.368020	-55.869623	112.559517	-55.869623	112.559517	-0.166357	-139.121404
3.400000	-0.066493	-50.069584	-55.529134	110.785828	-55.529134	110.785828	-0.168372	-140.835082
3.450000	-0.067599	-50.769859	-55.196674	109.009133	-55.196674	109.009133	-0.170398	-142.541448
3.500000	-0.068716	-51.468836	-54.871960	107.229886	-54.871960	107.229886	-0.172436	-144.240741
3.550000	-0.069845	-52.166509	-54.554726	105.448495	-54.554726	105.448495	-0.174485	-145.933200
3.600000	-0.070986	-52.862870	-54.244721	103.665335	-54.244721	103.665335	-0.176547	-147.619063
3.650000	-0.072139	-53.557912	-53.941707	101.880742	-53.941707	101.880742	-0.178622	-149.298567
3.700000	-0.073305	-54.251628	-53.645462	100.095026	-53.645462	100.095026	-0.180709	-150.971950
3.750000	-0.074485	-54.944014	-53.355773	98.308468	-53.355773	98.308468	-0.182810	-152.639448
3.800000	-0.075678	-55.635004	-53.072317	96.521311	-53.072317	96.521311	-0.184925	-154.301062
3.850000	-0.076885	-56.324652	-52.795047	94.733824	-52.795047	94.733824	-0.187053	-155.957281
3.900000	-0.078106	-57.012951	-52.523782	92.946221	-52.523782	92.946221	-0.189194	-157.608338
3.950000	-0.079342	-57.699898	-52.258351	91.158697	-52.258351	91.158697	-0.191349	-159.254464
4.000000	-0.080592	-58.385489	-51.998590	89.371433	-51.998590	89.371433	-0.193517	-160.895890
4.050000	-0.081857	-59.069719	-51.744345	87.584594	-51.744345	87.584594	-0.195697	-162.532842
4.100000	-0.083138	-59.752584	-51.495470	85.798334	-51.495470	85.798334	-0.197891	-164.165546
4.150000	-0.084435	-60.434083	-51.251826	84.012795	-51.251826	84.012795	-0.200096	-165.794228
4.200000	-0.085747	-61.114211	-51.013278	82.228106	-51.013278	82.228106	-0.202313	-167.419108
4.250000	-0.087076	-61.792967	-50.779701	80.444389	-50.779701	80.444389	-0.204542	-169.040407
4.300000	-0.088422	-62.470347	-50.550975	78.661758	-50.550975	78.661758	-0.206781	-170.658342
4.350000	-0.089785	-63.146351	-50.326986	76.880317	-50.326986	76.880317	-0.209031	-172.273129
4.400000	-0.091165	-63.820976	-50.107624	75.100163	-50.107624	75.100163	-0.211290	-173.884979
4.450000	-0.092563	-64.494222	-49.892785	73.321389	-49.892785	73.321389	-0.213558	-175.494104
4.500000	-0.093979	-65.166088	-49.682371	71.544081	-49.682371	71.544081	-0.215835	-177.100710
4.550000	-0.095413	-65.836573	-49.476288	69.768318	-49.476288	69.768318	-0.218120	-178.705003
4.600000	-0.096867	-66.505676	-49.274445	67.994178	-49.274445	67.994178	-0.220411	179.692817
4.650000	-0.098339	-67.173399	-49.076757	66.221732	-49.076757	66.221732	-0.222708	178.092549
4.700000	-0.099831	-67.839740	-48.883143	64.451049	-48.883143	64.451049	-0.225011	176.493999
4.750000	-0.101343	-68.504702	-48.693525	62.682195	-48.693525	62.682195	-0.227318	174.896974
4.800000	-0.102876	-69.168285	-48.507828	60.915233	-48.507828	60.915233	-0.229629	173.301284
4.850000	-0.104428	-69.830490	-48.325983	59.150224	-48.325983	59.150224	-0.231942	171.706742
4.900000	-0.106002	-70.491319	-48.147922	57.387228	-48.147922	57.387228	-0.234256	170.113167
4.950000	-0.107598	-71.150774	-47.973582	55.626302	-47.973582	55.626302	-0.236572	168.520379
5.000000	-0.109215	-71.808857	-47.802902	53.867504	-47.802902	53.867504	-0.238886	166.928201
5.050000	-0.110855	-72.465512	-47.635841	52.110988	-47.635841	52.110988	-0.241200	165.336473
5.100000	-0.112518	-73.120800	-47.472336	50.356718	-47.472336	50.356718	-0.243511	163.745001
5.150000	-0.114204	-73.774725	-47.312333	48.604752	-47.312333	48.604752	-0.245818	162.153619
5.200000	-0.115913	-74.427291	-47.155783	46.855147	-47.155783	46.855147	-0.248120	160.562168
5.250000	-0.117646	-75.078500	-47.002640	45.107963	-47.002640	45.107963	-0.250417	158.970491
5.300000	-0.119404	-75.728358	-46.852858	43.363258	-46.852858	43.363258	-0.252706	157.378437
5.350000	-0.121186	-76.376869	-46.706396	41.621096	-46.706396	41.621096	-0.254988	155.785856
5.400000	-0.122993	-77.024036	-46.563213	39.881542	-46.563213	39.881542	-0.257260	154.192606
5.450000	-0.124825	-77.669866	-46.423274	38.144661	-46.423274	38.144661	-0.259522	152.598546
5.500000	-0.126683	-78.314364	-46.286541	36.410523	-46.286541	36.410523	-0.261772	151.003540
5.550000	-0.128568	-78.957534	-46.152983	34.679202	-46.152983	34.679202	-0.264010	149.407460
5.600000	-0.130479	-79.599383	-46.022567	32.950773	-46.022567	32.950773	-0.266234	147.810177
5.650000	-0.132417	-80.239917	-45.895264	31.225317	-45.895264	31.225317	-0.268442	146.211571
5.700000	-0.134383	-80.879143	-45.771047	29.502918	-45.771047	29.502918	-0.270634	144.611524
5.750000	-0.136377	-81.517068	-45.649890	27.783664	-45.649890	27.783664	-0.272809	143.009925
5.800000	-0.138399	-82.153698	-45.531767	26.067649	-45.531767	26.067649	-0.274965	141.406666
5.850000	-0.140450	-82.789042	-45.416658	24.354970	-45.416658	24.354970	-0.277101	139.801645
5.900000	-0.142530	-83.423107	-45.304540	22.645730	-45.304540	22.645730	-0.279216	138.194765
5.950000	-0.144639	-84.055902	-45.195393	20.940036	-45.195393	20.940036	-0.281309	136.585933
6.000000	-0.146779	-84.687436	-45.089199	19.238001	-45.089199	19.238001	-0.283378	134.975064
6.050000	-0.148950	-85.317718	-44.985940	17.539744	-44.985940	17.539744	-0.285423	133.362075
6.100000	-0.151151	-85.946757	-44.885599	15.845386	-44.885599	15.845386	-0.287443	131.746890
6.150000	-0.153384	-86.574564	-44.788161	14.155056	-44.788161	14.155056	-0.289435	130.129438
6.200000	-0.155648	-87.201151	-44.693610	12.468885	-44.693610	12.468885	-0.291401	128.509654
6.250000	-0.157945	-87.826527	-44.601934	10.787009	-44.601934	10.787009	-0.293337	126.887478
6.300000	-0.160277	-88.450655	-44.513204	9.109768	-44.513204	9.109768	-0.295242	125.262748
6.350000	-0.162641	-89.073599	-44.427324	7.437116	-44.427324	7.437116	-0.297116	123.635520
6.400000	-0.165040	-89.695375	-44.344283	5.769197	-44.344283	5.769197	-0.298959	122.005752
6.450000	-0.167473	-90.315995	-44.264066	4.106153	-44.264066	4.106153	-0.300769	120.373408
6.500000	-0.169941	-90.935478	-44.186661	2.448126	-44.186661	2.448126	-0.302546	118.738458
6.550000	-0.172444	-91.553839	-44.112053	0.795250	-44.112053	0.795250	-0.304288	117.100878
6.600000	-0.174984	-92.171099	-44.040230	-0.852346	-44.040230	-0.852346	-0.305996	115.460649
6.650000	-0.177560	-92.787277	-43.971177	-2.494549	-43.971177	-2.494549	-0.307668	113.817760
6.700000	-0.180170	-93.402517	-43.904617	-4.131904	-43.904617	-4.131904	-0.309308	112.172513
6.750000	-0.182823	-94.016557	-43.841153	-5.762810	-43.841153	-5.762810	-0.310906	110.524172
6.800000	-0.185514	-94.629665	-43.780243	-7.388511	-43.780243	-7.388511	-0.312470	108.873363
6.850000	-0.188246	-95.241758	-43.722135	-9.008359	-43.722135	-9.008359	-0.313994	107.219788
6.900000	-0.191019	-95.852929	-43.666673	-10.622738	-43.666673	-10.622738	-0.315482	105.563619
6.950000	-0.193834	-96.463220	-43.613834	-12.231783	-43.613834	-12.231783	-0.316932	103.904879
7.000000	-0.196695	-97.072630	-43.563725	-13.835430	-43.563725	-13.835430	-0.318343	102.243448
7.050000	-0.199600	-97.681313	-43.516051	-15.434628	-43.516051	-15.434628	-0.319719	100.579657
7.100000	-0.202559	-98.289212	-43.471181	-17.029178	-43.471181	-17.029178	-0.321054	98.913111
7.150000	-0.205566	-98.896545	-43.428635	-18.620646	-43.428635	-18.620646	-0.322355	97.244337
7.200000	-0.208634	-99.503324	-43.388775	-20.209738	-43.388775	-20.209738	-0.323616	95.572964
7.250000	-0.211763	-100.109751	-43.351253	-21.798338	-43.351253	-21.798338	-0.324843	93.899372
7.300000	-0.214967	-100.715986	-43.316208	-23.388891	-43.316208	-23.388891	-0.326033	92.223445
7.350000	-0.218256	-101.322272	-43.283566	-24.984775	-43.283566	-24.984775	-0.327190	90.545294
7.400000	-0.221646	-101.928933	-43.253228	-26.590660	-43.253228	-26.590660	-0.328315	88.865071
7.450000	-0.225180	-102.536501	-43.225451	-28.215480	-43.225451	-28.215480	-0.329406	87.182648
7.500000	-0.228882	-103.145449	-43.199992	-29.866548	-43.199992	-29.866548	-0.330472	85.498410
7.550000	-0.232891	-103.757299	-43.177820	-31.571079	-43.177820	-31.571079	-0.331511	83.812011
7.600000	-0.237302	-104.373014	-43.159189	-33.346777	-43.159189	-33.346777	-0.332534	82.123919
7.650000	-0.242550	-104.996226	-43.147416	-35.264156	-43.147416	-35.264156	-0.333551	80.433897
7.700000	-0.249306	-105.630860	-43.148468	-37.409107	-43.148468	-37.409107	-0.334587	78.742154
7.750000	-0.259812	-106.285822	-43.186355	-40.011964	-43.186355	-40.011964	-0.335701	77.048699
7.800000	-0.279613	-106.968989	-43.333517	-43.456432	-43.333517	-43.456432	-0.336998	75.353960
7.850000	-0.331480	-107.613996	-44.015974	-48.033550	-44.015974	-48.033550	-0.338625	73.659975
7.900000	-0.389549	-107.658993	-45.639563	-42.495088	-45.639563	-42.495088	-0.340047	71.969946
7.950000	-0.322845	-107.895275	-44.579994	-34.386542	-44.579994	-34.386542	-0.340570	70.278952
8.000000	-0.289148	-108.567779	-43.864332	-36.200595	-43.864332	-36.200595	-0.340907	68.583418
8.050000	-0.278799	-109.240568	-43.577780	-38.532045	-43.577780	-38.532045	-0.341397	66.885725
8.100000	-0.276684	-109.883480	-43.448793	-40.531025	-43.448793	-40.531025	-0.342022	65.187144
8.150000	-0.277575	-110.506043	-43.381868	-42.254993	-43.381868	-42.254993	-0.342729	63.488224
8.200000	-0.279708	-111.116880	-43.342601	-43.807694	-43.342601	-43.807694	-0.343483	61.789227
8.250000	-0.282512	-111.719832	-43.319218	-45.237703	-43.319218	-45.237703	-0.344271	60.090308
8.300000	-0.285724	-112.317037	-43.306026	-46.571630	-43.306026	-46.571630	-0.345089	58.391629
8.350000	-0.289193	-112.910077	-43.299439	-47.829901	-43.299439	-47.829901	-0.345936	56.693366
8.400000	-0.292824	-113.500223	-43.297030	-49.031353	-43.297030	-49.031353	-0.346808	54.995609
8.450000	-0.296598	-114.087658	-43.298134	-50.174642	-43.298134	-50.174642	-0.347713	53.298625
8.500000	-0.300472	-114.673135	-43.301466	-51.272025	-43.301466	-51.272025	-0.348651	51.602476
8.550000	-0.304437	-115.256814	-43.306525	-52.323371	-43.306525	-52.323371	-0.349628	49.907402
8.600000	-0.308479	-115.838958	-43.312750	-53.331960	-43.312750	-53.331960	-0.350648	48.213553
8.650000	-0.312588	-116.419798	-43.319652	-54.301079	-43.319652	-54.301079	-0.351713	46.521052
8.700000	-0.316766	-116.999351	-43.326872	-55.228012	-43.326872	-55.228012	-0.352834	44.830217
8.750000	-0.320998	-117.577903	-43.334024	-56.119645	-43.334024	-56.119645	-0.354008	43.140966
8.800000	-0.325295	-118.155323	-43.340677	-56.968390	-43.340677	-56.968390	-0.355252	41.453871
8.850000	-0.329643	-118.731896	-43.346599	-57.782794	-43.346599	-57.782794	-0.356560	39.768688
8.900000	-0.334049	-119.307545	-43.351289	-58.557390	-43.351289	-58.557390	-0.357947	38.085930
8.950000	-0.338507	-119.882409	-43.354515	-59.296113	-43.354515	-59.296113	-0.359413	36.405550
9.000000	-0.343018	-120.456504	-43.355850	-59.997873	-43.355850	-59.997873	-0.360967	34.727821
9.050000	-0.347582	-121.029862	-43.354878	-60.662345	-43.354878	-60.662345	-0.362616	33.052975
9.100000	-0.352196	-121.602576	-43.351412	-61.292777	-43.351412	-61.292777	-0.364361	31.380963
9.150000	-0.356865	-122.174595	-43.344669	-61.884916	-43.344669	-61.884916	-0.366220	29.712380
9.200000	-0.361581	-122.746061	-43.334813	-62.445535	-43.334813	-62.445535	-0.368183	28.046835
9.250000	-0.366354	-123.316895	-43.320722	-62.968869	-43.320722	-62.968869	-0.370278	26.385167
9.300000	-0.371174	-123.887224	-43.302680	-63.461751	-43.302680	-63.461751	-0.372490	24.726925
9.350000	-0.376048	-124.457017	-43.279748	-63.921638	-43.279748	-63.921638	-0.374843	23.072716
9.400000	-0.380974	-125.026331	-43.251788	-64.351742	-43.251788	-64.351742	-0.377334	21.422479
9.450000	-0.385950	-125.595195	-43.218378	-64.753700	-43.218378	-64.753700	-0.379970	19.776380
9.500000	-0.390980	-126.163610	-43.178756	-65.127805	-43.178756	-65.127805	-0.382767	18.134832
9.550000	-0.396059	-126.731652	-43.133250	-65.479122	-43.133250	-65.479122	-0.385715	16.497479
9.600000	-0.401196	-127.299278	-43.080261	-65.806052	-43.080261	-65.806052	-0.388848	14.865284
9.650000	-0.406381	-127.866587	-43.020802	-66.115312	-43.020802	-66.115312	-0.392140	13.237485
9.700000	-0.411623	-128.433545	-42.953157	-66.406703	-42.953157	-66.406703	-0.395630	11.615092
9.750000	-0.416916	-129.000221	-42.878087	-66.685478	-42.878087	-66.685478	-0.399300	9.997570
9.800000	-0.422263	-129.566619	-42.794610	-66.954156	-42.794610	-66.954156	-0.403171	8.385468
9.850000	-0.427665	-130.132770	-42.702622	-67.216583	-42.702622	-67.216583	-0.407246	6.778828
9.900000	-0.433120	-130.698708	-42.602248	-67.476808	-42.602248	-67.476808	-0.411525	5.177575
9.950000	-0.438633	-131.264440	-42.492322	-67.738961	-42.492322	-67.738961	-0.416034	3.582393
10.000000	-0.444197	-131.830020	-42.374295	-68.006618	-42.374295	-68.006618	-0.420747	1.992520
