! freq	dB(S11)	phase(S11)	dB(S12)	phase(S12)	
!     	dB(S21)	phase(S21)	dB(S22)	phase(S22)	
!S-par simulation data
#  GHz  S  DB  R 50
0.000000	-86.929727	0.000000	-0.000391	0.000000	-0.000391	0.000000	-86.929727	0.000000
0.050000	-33.914320	-92.850075	-0.004435	-2.836274	-0.004435	-2.836274	-33.914387	-92.757051
0.100000	-27.910320	-95.880014	-0.015149	-5.655744	-0.015149	-5.655744	-27.910117	-95.694778
0.150000	-24.414727	-98.843517	-0.030096	-8.455280	-0.030096	-8.455280	-24.414212	-98.567188
0.200000	-21.949610	-101.768758	-0.047794	-11.239807	-0.047794	-11.239807	-21.948854	-101.402184
0.250000	-20.051956	-104.660466	-0.067886	-14.013079	-0.067886	-14.013079	-20.051084	-104.203950
0.300000	-18.514942	-107.522345	-0.090400	-16.776732	-0.090400	-16.776732	-18.514081	-106.975597
0.350000	-17.227275	-110.359025	-0.115342	-19.531048	-0.115342	-19.531048	-17.226514	-109.721373
0.400000	-16.123173	-113.173354	-0.142782	-22.275116	-0.142782	-22.275116	-16.122558	-112.443936
0.450000	-15.160959	-115.966763	-0.172824	-25.007224	-0.172824	-25.007224	-15.160497	-115.144643
0.500000	-14.310691	-118.741836	-0.205287	-27.726743	-0.205287	-27.726743	-14.310360	-117.826185
0.550000	-13.551746	-121.499440	-0.240075	-30.432568	-0.240075	-30.432568	-13.551509	-120.489523
0.600000	-12.869641	-124.239200	-0.277155	-33.122958	-0.277155	-33.122958	-12.869451	-123.134355
0.650000	-12.252145	-126.961862	-0.316292	-35.797533	-0.316292	-35.797533	-12.251959	-125.761542
0.700000	-11.690054	-129.667535	-0.357300	-38.455710	-0.357300	-38.455710	-11.689833	-128.371265
0.750000	-11.176620	-132.355519	-0.400042	-41.096332	-0.400042	-41.096332	-11.176330	-130.962862
0.800000	-10.705926	-135.025654	-0.444313	-43.718925	-0.444313	-43.718925	-10.705543	-133.536204
0.850000	-10.272962	-137.677967	-0.489897	-46.323324	-0.489897	-46.323324	-10.272470	-136.091335
0.900000	-9.873669	-140.312357	-0.536591	-48.909319	-0.536591	-48.909319	-9.873061	-138.628156
0.950000	-9.504698	-142.928663	-0.584201	-51.476686	-0.584201	-51.476686	-9.503975	-141.146490
1.000000	-9.163145	-145.526867	-0.632528	-54.025381	-0.632528	-54.025381	-9.162313	-143.646300
1.050000	-8.846505	-148.107027	-0.681376	-56.555459	-0.681376	-56.555459	-8.845576	-146.127614
1.100000	-8.552600	-150.669279	-0.730555	-59.067070	-0.730555	-59.067070	-8.551592	-148.590533
1.150000	-8.279528	-153.213835	-0.779882	-61.560447	-0.779882	-61.560447	-8.278460	-151.035231
1.200000	-8.025609	-155.740982	-0.829176	-64.035904	-0.829176	-64.035904	-8.024505	-153.461952
1.250000	-7.789359	-158.251074	-0.878268	-66.493825	-0.878268	-66.493825	-7.788243	-155.871005
1.300000	-7.569671	-160.744180	-0.926977	-68.934303	-0.926977	-68.934303	-7.568570	-158.262397
1.350000	-7.365131	-163.221154	-0.975158	-71.358229	-0.975158	-71.358229	-7.364069	-160.636944
1.400000	-7.174677	-165.682529	-1.022666	-73.766169	-1.022666	-73.766169	-7.173681	-162.995132
1.450000	-6.997358	-168.128888	-1.069363	-76.158730	-1.069363	-76.158730	-6.996450	-165.337492
1.500000	-6.832310	-170.560854	-1.115121	-78.536562	-1.115121	-78.536562	-6.831513	-167.664598
1.550000	-6.678754	-172.979086	-1.159819	-80.900346	-1.159819	-80.900346	-6.678087	-169.977057
1.600000	-6.535983	-175.384275	-1.203348	-83.250793	-1.203348	-83.250793	-6.535463	-172.275513
1.650000	-6.403354	-177.777139	-1.245603	-85.588641	-1.245603	-85.588641	-6.402994	-174.560633
1.700000	-6.281007	179.842652	-1.286331	-87.913552	-1.286331	-87.913552	-6.280820	-176.831932
1.750000	-6.167008	177.472230	-1.325740	-90.228452	-1.325740	-90.228452	-6.167001	-179.092428
1.800000	-6.061540	175.111843	-1.363618	-92.533085	-1.363618	-92.533085	-6.061716	178.658262
1.850000	-5.964158	172.760705	-1.399894	-94.828244	-1.399894	-94.828244	-5.964519	176.419399
1.900000	-5.874456	170.418025	-1.434506	-97.114732	-1.434506	-97.114732	-5.874998	174.190233
1.950000	-5.792061	168.083005	-1.467399	-99.393353	-1.467399	-99.393353	-5.792779	171.970007
2.000000	-5.716633	165.754844	-1.498526	-101.664912	-1.498526	-101.664912	-5.717519	169.757961
2.050000	-5.647860	163.432743	-1.527844	-103.930215	-1.527844	-103.930215	-5.648903	167.553332
2.100000	-5.585457	161.115900	-1.555320	-106.190066	-1.555320	-106.190066	-5.586643	165.355354
2.150000	-5.529164	158.803521	-1.580925	-108.445263	-1.580925	-108.445263	-5.530476	163.163267
2.200000	-5.478742	156.494814	-1.604636	-110.696601	-1.604636	-110.696601	-5.480162	160.976310
2.250000	-5.433972	154.188995	-1.626438	-112.944864	-1.626438	-112.944864	-5.435479	158.793729
2.300000	-5.394657	151.885286	-1.646320	-115.190833	-1.646320	-115.190833	-5.396229	156.614773
2.350000	-5.360613	149.582920	-1.664276	-117.435278	-1.664276	-117.435278	-5.362228	154.438700
2.400000	-5.331675	147.281137	-1.680305	-119.678959	-1.680305	-119.678959	-5.333310	152.264773
2.450000	-5.307694	144.979190	-1.694413	-121.922625	-1.694413	-121.922625	-5.309324	150.092266
2.500000	-5.288533	142.676341	-1.706609	-124.167017	-1.706609	-124.167017	-5.290134	147.920459
2.550000	-5.274266	140.371763	-1.716824	-126.412958	-1.716824	-126.412958	-5.275813	145.748611
2.600000	-5.264575	138.064782	-1.725163	-128.661132	-1.725163	-128.661132	-5.266046	143.575993
2.650000	-5.259360	135.754701	-1.731647	-130.912240	-1.731647	-130.912240	-5.260732	141.401919
2.700000	-5.258532	133.440838	-1.736305	-133.166972	-1.736305	-133.166972	-5.259784	139.225714
2.750000	-5.262010	131.122520	-1.739168	-135.426005	-1.739168	-135.426005	-5.263122	137.046712
2.800000	-5.269722	128.799092	-1.740270	-137.690003	-1.740270	-137.690003	-5.270678	134.864260
2.850000	-5.281604	126.469910	-1.739651	-139.959617	-1.739651	-139.959617	-5.282387	132.677717
2.900000	-5.297599	124.134348	-1.737353	-142.235486	-1.737353	-142.235486	-5.298197	130.486451
2.950000	-5.317658	121.791789	-1.733423	-144.518237	-1.733423	-144.518237	-5.318059	128.289843
3.000000	-5.341735	119.441635	-1.727910	-146.808484	-1.727910	-146.808484	-5.341930	126.087283
3.050000	-5.369791	117.083299	-1.720867	-149.106828	-1.720867	-149.106828	-5.369775	123.878172
3.100000	-5.401790	114.716208	-1.712350	-151.413862	-1.712350	-151.413862	-5.401559	121.661920
3.150000	-5.437702	112.339802	-1.702419	-153.730165	-1.702419	-153.730165	-5.437255	119.437947
3.200000	-5.477496	109.953533	-1.691136	-156.056308	-1.691136	-156.056308	-5.476835	117.205677
3.250000	-5.521145	107.556864	-1.678568	-158.392852	-1.678568	-158.392852	-5.520273	114.964543
3.300000	-5.568622	105.149268	-1.664783	-160.740352	-1.664783	-160.740352	-5.567547	112.713978
3.350000	-5.619802	102.730579	-1.649886	-163.099001	-1.649886	-163.099001	-5.618531	110.453731
3.400000	-5.674901	100.299434	-1.633873	-165.470198	-1.633873	-165.470198	-5.673444	108.182486
3.450000	-5.733686	97.856013	-1.616888	-167.853797	-1.616888	-167.853797	-5.732056	105.900277
3.500000	-5.796125	95.399827	-1.599008	-170.250317	-1.599008	-170.250317	-5.794334	103.606545
3.550000	-5.862177	92.930387	-1.580318	-172.660286	-1.580318	-172.660286	-5.860239	101.300717
3.600000	-5.932118	90.445614	-1.560826	-175.085846	-1.560826	-175.085846	-5.930049	98.980729
3.650000	-6.005558	87.946376	-1.540713	-177.526146	-1.540713	-177.526146	-6.003373	96.647209
3.700000	-6.082403	85.432209	-1.520078	-179.981680	-1.520078	-179.981680	-6.080116	94.299557
3.750000	-6.162558	82.902533	-1.499020	177.546942	-1.499020	177.546942	-6.160182	91.937039
3.800000	-6.245904	80.356716	-1.477644	175.059070	-1.477644	175.059070	-6.243452	89.558847
3.850000	-6.332297	77.794062	-1.456063	172.553997	-1.456063	172.553997	-6.329779	87.164082
3.900000	-6.421627	75.212986	-1.434395	170.030134	-1.434395	170.030134	-6.419054	84.750916
3.950000	-6.513676	72.611870	-1.412788	167.485895	-1.412788	167.485895	-6.511056	82.317404
4.000000	-6.608008	69.990916	-1.391395	164.921591	-1.391395	164.921591	-6.605345	79.863426
4.050000	-6.704257	67.348806	-1.370374	162.336036	-1.370374	162.336036	-6.701555	77.387283
4.100000	-6.801969	64.683932	-1.349905	159.727838	-1.349905	159.727838	-6.799229	74.886928
4.150000	-6.900577	61.994313	-1.330192	157.095335	-1.330192	157.095335	-6.897800	72.359866
4.200000	-6.999370	59.277466	-1.311471	154.436517	-1.311471	154.436517	-6.996558	69.803012
4.250000	-7.097185	56.527058	-1.294175	151.745977	-1.294175	151.745977	-7.094339	67.208944
4.300000	-7.192829	53.740361	-1.278620	149.022069	-1.278620	149.022069	-7.189957	64.574183
4.350000	-7.284804	50.912340	-1.265238	146.261324	-1.265238	146.261324	-7.281922	61.892715
4.400000	-7.371113	48.035230	-1.254630	143.458330	-1.254630	143.458330	-7.368250	59.155487
4.450000	-7.449143	45.098433	-1.247598	140.605964	-1.247598	140.605964	-7.446351	56.350322
4.500000	-7.515441	42.087195	-1.245251	137.694687	-1.245251	137.694687	-7.512805	53.460502
4.550000	-7.564804	38.977352	-1.249381	134.709204	-1.249381	134.709204	-7.562466	50.458986
4.600000	-7.588248	35.723531	-1.263390	131.621721	-1.263390	131.621721	-7.586456	47.295578
4.650000	-7.577673	32.281888	-1.290860	128.409723	-1.290860	128.409723	-7.576800	43.923057
4.700000	-7.519105	28.567153	-1.338849	125.029045	-1.338849	125.029045	-7.519743	40.249863
4.750000	-7.399203	24.481072	-1.416279	121.435388	-1.416279	121.435388	-7.402192	36.172341
4.800000	-7.175010	19.691568	-1.553617	117.477870	-1.553617	117.477870	-7.181981	31.338892
4.850000	-6.800117	13.668302	-1.808240	112.980388	-1.808240	112.980388	-6.813883	25.198826
4.900000	-6.214702	5.247528	-2.329097	107.728512	-2.329097	107.728512	-6.240407	16.554218
4.950000	-5.412579	-8.524749	-3.593856	102.275011	-3.593856	102.275011	-5.460755	2.386400
5.000000	-5.042409	-34.039078	-6.634598	108.438378	-6.634598	108.438378	-5.136388	-23.818143
5.050000	-7.932002	-70.276675	-4.790607	138.254116	-4.790607	138.254116	-8.135087	-61.345791
5.100000	-14.980597	-89.298053	-1.843759	131.559662	-1.843759	131.559662	-15.560397	-82.948609
5.150000	-23.296029	-69.516346	-1.006009	122.459443	-1.006009	122.459443	-25.663681	-62.840696
5.200000	-24.416507	-17.919335	-0.736100	115.817007	-0.736100	115.817007	-25.889100	6.302368
5.250000	-21.813750	-0.866654	-0.629210	110.636109	-0.629210	110.636109	-22.207389	20.550313
5.300000	-20.311888	2.441348	-0.578837	106.254365	-0.578837	106.254365	-20.456509	21.776194
5.350000	-19.546063	2.138987	-0.551705	102.345534	-0.551705	102.345534	-19.602819	20.337002
5.400000	-19.180031	0.662366	-0.534795	98.720522	-0.534795	98.720522	-19.194270	18.140995
5.450000	-19.061839	-1.288712	-0.523095	95.283961	-0.523095	95.283961	-19.051453	15.676085
5.500000	-19.119928	-3.439112	-0.514369	91.983493	-0.514369	91.983493	-19.093700	13.116968
5.550000	-19.299981	-5.647555	-0.507306	88.773733	-0.507306	88.773733	-19.262437	10.541106
5.600000	-19.575407	-7.847027	-0.501331	85.629046	-0.501331	85.629046	-19.529441	7.980055
5.650000	-19.932249	-9.994903	-0.496165	82.533043	-0.496165	82.533043	-19.880149	5.451000
5.700000	-20.362764	-12.057111	-0.491660	79.473953	-0.491660	79.473953	-20.306743	2.966086
5.750000	-20.863505	-14.001037	-0.487739	76.443114	-0.487739	76.443114	-20.806128	0.536447
5.800000	-21.435008	-15.785763	-0.484378	73.434425	-0.484378	73.434425	-21.379759	-1.823235
5.850000	-22.081113	-17.346812	-0.481595	70.443529	-0.481595	70.443529	-22.033370	-4.088298
5.900000	-22.803787	-18.637660	-0.479340	67.464887	-0.479340	67.464887	-22.771204	-6.240935
5.950000	-23.610530	-19.574451	-0.477614	64.495591	-0.477614	64.495591	-23.605066	-8.246182
6.000000	-24.511093	-20.039074	-0.476423	61.533284	-0.476423	61.533284	-24.552043	-10.052008
6.050000	-25.517075	-19.860765	-0.475772	58.576023	-0.475772	58.576023	-25.636652	-11.578114
6.100000	-26.640426	-18.787111	-0.475669	55.622188	-0.475669	55.622188	-26.894518	-12.694920
6.150000	-27.882921	-16.302650	-0.476161	52.670466	-0.476161	52.670466	-28.378846	-13.104047
6.200000	-29.223565	-11.762407	-0.477241	49.719476	-0.477241	49.719476	-30.167624	-12.293648
6.250000	-30.586745	-4.384549	-0.478890	46.768143	-0.478890	46.768143	-32.378597	-9.220911
6.300000	-31.773249	6.600306	-0.481117	43.815578	-0.481117	43.815578	-35.153817	-1.287524
6.350000	-32.434853	20.970281	-0.483931	40.860980	-0.483931	40.860980	-38.339508	17.838367
6.400000	-32.264553	36.516066	-0.487340	37.903612	-0.487340	37.903612	-39.897036	53.746117
6.450000	-31.318836	50.029561	-0.491359	34.942765	-0.491359	34.942765	-37.616668	86.673340
6.500000	-29.926194	59.440875	-0.496065	31.977293	-0.496065	31.977293	-34.277135	101.104388
6.550000	-28.468086	65.533574	-0.501404	29.006984	-0.501404	29.006984	-31.556687	107.044719
6.600000	-27.078152	69.195502	-0.507393	26.031247	-0.507393	26.031247	-29.381458	109.239931
6.650000	-25.798636	71.171104	-0.514048	23.049502	-0.514048	23.049502	-27.594549	109.583269
6.700000	-24.631082	71.934406	-0.521432	20.060753	-0.521432	20.060753	-26.083680	108.864296
6.750000	-23.569640	71.913934	-0.529519	17.064883	-0.529519	17.064883	-24.778018	107.550559
6.800000	-22.599689	71.306265	-0.538357	14.061099	-0.538357	14.061099	-23.627714	105.828900
6.850000	-21.708643	70.267681	-0.547975	11.048786	-0.547975	11.048786	-22.598895	103.825671
6.900000	-20.885353	68.904982	-0.558408	8.027314	-0.558408	8.027314	-21.667274	101.618160
6.950000	-20.120317	67.292881	-0.569696	4.996035	-0.569696	4.996035	-20.814918	99.256098
7.000000	-19.405551	65.484802	-0.581882	1.954279	-0.581882	1.954279	-20.028237	96.772790
7.050000	-18.734366	63.519707	-0.595015	-1.098655	-0.595015	-1.098655	-19.296702	94.191265
7.100000	-18.101146	61.426492	-0.609150	-4.163497	-0.609150	-4.163497	-18.611997	91.527851
7.150000	-17.501157	59.226888	-0.624347	-7.241016	-0.624347	-7.241016	-17.967441	88.794355
7.200000	-16.930382	56.937421	-0.640676	-10.332020	-0.640676	-10.332020	-17.357586	85.999431
7.250000	-16.385392	54.570757	-0.658211	-13.437367	-0.658211	-13.437367	-16.777938	83.149477
7.300000	-15.863240	52.136639	-0.677039	-16.557966	-0.677039	-16.557966	-16.224739	80.249238
7.350000	-15.361379	49.642564	-0.697253	-19.694784	-0.697253	-19.694784	-15.694820	77.302210
7.400000	-14.877590	47.094264	-0.718960	-22.848855	-0.718960	-22.848855	-15.185482	74.310928
7.450000	-14.409931	44.496058	-0.742279	-26.021284	-0.742279	-26.021284	-14.694406	71.277169
7.500000	-13.956691	41.851119	-0.767342	-29.213260	-0.767342	-29.213260	-14.219585	68.202096
7.550000	-13.515908	39.159793	-0.794383	-32.427031	-0.794383	-32.427031	-13.758798	65.084600
7.600000	-13.086662	36.425413	-0.823501	-35.663143	-0.823501	-35.663143	-13.310968	61.926633
7.650000	-12.667740	33.648596	-0.854887	-38.923104	-0.854887	-38.923104	-12.874733	58.727971
7.700000	-12.258049	30.829346	-0.888756	-42.208553	-0.888756	-42.208553	-12.448883	55.488043
7.750000	-11.856600	27.967107	-0.925353	-45.521269	-0.925353	-45.521269	-12.032332	52.205946
7.800000	-11.462489	25.060796	-0.964956	-48.863194	-0.964956	-48.863194	-11.624102	48.880455
7.850000	-11.074894	22.108828	-1.007881	-52.236448	-1.007881	-52.236448	-11.223304	45.510020
7.900000	-10.693056	19.109122	-1.054489	-55.643354	-1.054489	-55.643354	-10.829127	42.092756
7.950000	-10.317412	16.064264	-1.104788	-59.082694	-1.104788	-59.082694	-10.441981	38.631430
8.000000	-9.945197	12.961818	-1.159972	-62.564033	-1.159972	-62.564033	-10.059016	35.114307
8.050000	-9.576797	9.802508	-1.220263	-66.087343	-1.220263	-66.087343	-9.680601	31.542593
8.100000	-9.211652	6.582180	-1.286298	-69.656005	-1.286298	-69.656005	-9.306137	27.912823
8.150000	-8.849103	3.295303	-1.358892	-73.274332	-1.358892	-73.274332	-8.934922	24.220301
8.200000	-8.488659	-0.063742	-1.438945	-76.946606	-1.438945	-76.946606	-8.566423	20.460311
8.250000	-8.130014	-3.500422	-1.527425	-80.676882	-1.527425	-80.676882	-8.200287	16.628302
8.300000	-7.772770	-7.021715	-1.625557	-84.470230	-1.625557	-84.470230	-7.836066	12.718320
8.350000	-7.416176	-10.638443	-1.735132	-88.334422	-1.735132	-88.334422	-7.472949	8.720891
8.400000	-7.061370	-14.348833	-1.856699	-92.267772	-1.856699	-92.267772	-7.112025	4.637994
8.450000	-6.705958	-18.179721	-1.994315	-96.289396	-1.994315	-96.289396	-6.750811	0.445508
8.500000	-6.352059	-22.123455	-2.148262	-100.392898	-2.148262	-100.392898	-6.391388	-3.849390
8.550000	-5.997958	-26.207651	-2.323534	-104.597051	-2.323534	-104.597051	-6.031942	-8.271616
8.600000	-5.644419	-30.440975	-2.523315	-108.906248	-2.523315	-108.906248	-5.673174	-12.828976
8.650000	-5.291793	-34.839063	-2.752371	-113.328990	-2.752371	-113.328990	-5.315362	-17.535690
8.700000	-4.940691	-39.419234	-3.016657	-117.873592	-3.016657	-117.873592	-4.959050	-22.407589
8.750000	-4.592062	-44.200512	-3.323668	-122.547495	-3.323668	-122.547495	-4.605124	-27.462121
8.800000	-4.247180	-49.207102	-3.683619	-127.358105	-3.683619	-127.358105	-4.254792	-32.721478
8.850000	-3.908176	-54.458180	-4.108335	-132.304777	-4.108335	-132.304777	-3.910155	-38.203260
8.900000	-3.577703	-59.976666	-4.613806	-137.381374	-4.613806	-137.381374	-3.573836	-43.928358
8.950000	-3.259242	-65.785442	-5.221119	-142.568841	-5.221119	-142.568841	-3.249298	-49.917392
9.000000	-2.957234	-71.906001	-5.958585	-147.825524	-5.958585	-147.825524	-2.940978	-56.189316
9.050000	-2.677178	-78.356523	-6.865134	-153.069488	-6.865134	-153.069488	-2.654379	-62.759449
9.100000	-2.425653	-85.149331	-7.996000	-158.143805	-7.996000	-158.143805	-2.396080	-69.636914
9.150000	-2.210201	-92.287818	-9.432837	-162.741412	-9.432837	-162.741412	-2.173612	-76.821578
9.200000	-2.039513	-99.766183	-11.303228	-166.195543	-11.303228	-166.195543	-1.995630	-84.303409
9.250000	-1.921885	-107.557900	-13.805376	-166.906827	-13.805376	-166.906827	-1.870375	-92.052093
9.300000	-1.864653	-115.619785	-17.176127	-160.315902	-17.176127	-160.315902	-1.805105	-100.020809
9.350000	-1.873643	-123.894133	-20.617053	-134.132694	-20.617053	-134.132694	-1.805562	-108.148290
9.400000	-1.951165	-132.309680	-19.624747	-94.174971	-19.624747	-94.174971	-1.874006	-116.360942
9.450000	-2.099292	-140.791919	-15.825379	-77.270156	-15.825379	-77.270156	-2.012515	-124.579889
9.500000	-2.313263	-149.261844	-12.765071	-74.519328	-12.765071	-74.519328	-2.216460	-132.724991
9.550000	-2.586311	-157.650912	-10.512283	-76.832221	-10.512283	-76.832221	-2.479321	-140.726008
9.600000	-2.909290	-165.903362	-8.820048	-81.180957	-8.820048	-81.180957	-2.792328	-148.525564
9.650000	-3.271306	-173.979165	-7.519534	-86.413589	-7.519534	-86.413589	-3.145064	-156.082325
9.700000	-3.660722	178.143270	-6.501890	-92.013611	-6.501890	-92.013611	-3.526402	-163.374590
9.750000	-4.066421	170.472881	-5.695641	-97.728827	-5.695641	-97.728827	-3.925747	-170.393553
9.800000	-4.478037	163.008369	-5.051145	-103.426168	-5.051145	-103.426168	-4.333215	-177.141684
9.850000	-4.886274	155.741814	-4.532597	-109.035380	-4.532597	-109.035380	-4.739894	176.370550
9.900000	-5.283044	148.661959	-4.113475	-114.521496	-4.113475	-114.521496	-5.137948	170.127664
9.950000	-5.661504	141.756854	-3.773756	-119.870018	-3.773756	-119.870018	-5.520588	164.111574
10.000000	-6.016026	135.015751	-3.498122	-125.078405	-3.498122	-125.078405	-5.882004	158.303383
