! freq	dB(S11)	phase(S11)	dB(S12)	phase(S12)	
!     	dB(S21)	phase(S21)	dB(S22)	phase(S22)	
!S-par simulation data
#  GHz  S  DB  R 50
0.000000	-0.000000	0.000000	-383.105544	180.000000	-383.105544	180.000000	-0.000000	0.000000
0.050000	-0.000078	-0.760753	-101.664391	-0.246140	-101.664391	-0.246140	-0.000107	-0.862558
0.100000	-0.000310	-1.521350	-101.304601	12.161334	-101.304601	12.161334	-0.000424	-1.724859
0.150000	-0.000689	-2.281640	-100.873895	20.854727	-100.873895	20.854727	-0.000938	-2.586665
0.200000	-0.001205	-3.041495	-100.377399	27.857697	-100.377399	27.857697	-0.001629	-3.447776
0.250000	-0.001854	-3.800760	-99.857750	33.543928	-99.857750	33.543928	-0.002484	-4.307968
0.300000	-0.002609	-4.559386	-99.358194	38.278445	-99.358194	38.278445	-0.003463	-5.167196
0.350000	-0.003463	-5.317273	-98.903796	42.207078	-98.903796	42.207078	-0.004549	-6.025342
0.400000	-0.004400	-6.074360	-98.513748	45.506643	-98.513748	45.506643	-0.005716	-6.882354
0.450000	-0.005404	-6.830606	-98.201475	48.333443	-98.201475	48.333443	-0.006943	-7.738213
0.500000	-0.006463	-7.585985	-97.977159	50.827592	-97.977159	50.827592	-0.008210	-8.592923
0.550000	-0.007564	-8.340485	-97.849671	53.119573	-97.849671	53.119573	-0.009501	-9.446505
0.600000	-0.008694	-9.094104	-97.828025	55.339148	-97.828025	55.339148	-0.010804	-10.298989
0.650000	-0.009844	-9.846851	-97.922454	57.627315	-97.922454	57.627315	-0.012107	-11.150410
0.700000	-0.011005	-10.598737	-98.145179	60.153360	-98.145179	60.153360	-0.013403	-12.000802
0.750000	-0.012171	-11.349779	-98.510640	63.141157	-98.510640	63.141157	-0.014688	-12.850199
0.800000	-0.013336	-12.099993	-99.034323	66.912040	-99.034323	66.912040	-0.015957	-13.698631
0.850000	-0.014495	-12.849396	-99.727475	71.954998	-99.727475	71.954998	-0.017208	-14.546121
0.900000	-0.015646	-13.598004	-100.580146	79.027958	-100.580146	79.027958	-0.018442	-15.392687
0.950000	-0.016786	-14.345832	-101.514696	89.223670	-101.514696	89.223670	-0.019657	-16.238342
1.000000	-0.017914	-15.092891	-102.290635	103.670045	-102.290635	103.670045	-0.020854	-17.083093
1.050000	-0.019028	-15.839189	-102.441477	122.263015	-102.441477	122.263015	-0.022035	-17.926943
1.100000	-0.020129	-16.584734	-101.558683	141.970978	-101.558683	141.970978	-0.023199	-18.769888
1.150000	-0.021216	-17.329529	-99.810713	158.392755	-99.810713	158.392755	-0.024349	-19.611925
1.200000	-0.022289	-18.073574	-97.721336	169.972269	-97.721336	169.972269	-0.025486	-20.453042
1.250000	-0.023350	-18.816869	-95.640053	177.657358	-95.640053	177.657358	-0.026612	-21.293229
1.300000	-0.024398	-19.559376	-93.683904	-177.344905	-93.683904	-177.344905	-0.027726	-22.132430
1.350000	-0.025434	-20.301122	-91.891994	-174.003512	-91.891994	-174.003512	-0.028832	-22.970668
1.400000	-0.026460	-21.042099	-90.251775	-171.777398	-90.251775	-171.777398	-0.029930	-23.807926
1.450000	-0.027476	-21.782299	-88.743928	-170.326308	-88.743928	-170.326308	-0.031021	-24.644186
1.500000	-0.028483	-22.521710	-87.349767	-169.431489	-87.349767	-169.431489	-0.032106	-25.479428
1.550000	-0.029482	-23.260322	-86.053172	-168.948141	-86.053172	-168.948141	-0.033186	-26.313632
1.600000	-0.030475	-23.998121	-84.840748	-168.777477	-84.840748	-168.777477	-0.034263	-27.146777
1.650000	-0.031461	-24.735094	-83.701486	-168.850136	-83.701486	-168.850136	-0.035336	-27.978842
1.700000	-0.032440	-25.470929	-82.602043	-169.166352	-82.602043	-169.166352	-0.036406	-28.809414
1.750000	-0.033417	-26.206321	-81.594294	-169.569935	-81.594294	-169.569935	-0.037475	-29.639406
1.800000	-0.034389	-26.940648	-80.621962	-170.119578	-80.621962	-170.119578	-0.038543	-30.467996
1.850000	-0.035358	-27.674215	-79.703041	-170.773550	-79.703041	-170.773550	-0.039610	-31.295586
1.900000	-0.036325	-28.406834	-78.821560	-171.515103	-78.821560	-171.515103	-0.040676	-32.121930
1.950000	-0.037290	-29.138508	-77.975509	-172.344236	-77.975509	-172.344236	-0.041743	-32.947029
2.000000	-0.038254	-29.869365	-77.168297	-173.226845	-77.168297	-173.226845	-0.042810	-33.771055
2.050000	-0.039216	-30.599079	-76.383304	-174.184323	-76.383304	-174.184323	-0.043879	-34.593577
2.100000	-0.040179	-31.328290	-75.644531	-175.167182	-75.644531	-175.167182	-0.044948	-35.415437
2.150000	-0.041142	-32.056191	-74.918507	-176.213278	-74.918507	-176.213278	-0.046020	-36.235579
2.200000	-0.042106	-32.783102	-74.216852	-177.299154	-74.216852	-177.299154	-0.047094	-37.054421
2.250000	-0.043071	-33.509006	-73.537878	-178.420565	-73.537878	-178.420565	-0.048170	-37.871947
2.300000	-0.044038	-34.233889	-72.880082	-179.573883	-72.880082	-179.573883	-0.049250	-38.688137
2.350000	-0.045007	-34.957737	-72.242115	179.244014	-72.242115	179.244014	-0.050332	-39.502974
2.400000	-0.045979	-35.680534	-71.622764	178.035830	-71.622764	178.035830	-0.051418	-40.316443
2.450000	-0.046953	-36.402267	-71.020934	176.803925	-71.020934	176.803925	-0.052508	-41.128527
2.500000	-0.047931	-37.122922	-70.435632	175.550369	-70.435632	175.550369	-0.053603	-41.939209
2.550000	-0.048914	-37.842436	-69.865014	174.276203	-69.865014	174.276203	-0.054702	-42.748413
2.600000	-0.049900	-38.560845	-69.309288	172.983962	-69.309288	172.983962	-0.055806	-43.556184
2.650000	-0.050891	-39.278134	-68.767688	171.675067	-68.767688	171.675067	-0.056916	-44.362508
2.700000	-0.051887	-39.994290	-68.239513	170.350796	-68.239513	170.350796	-0.058031	-45.167371
2.750000	-0.052888	-40.709303	-67.724116	169.012298	-67.724116	169.012298	-0.059153	-45.970760
2.800000	-0.053895	-41.423158	-67.220900	167.660610	-67.220900	167.660610	-0.060281	-46.772661
2.850000	-0.054908	-42.135845	-66.729312	166.296677	-66.729312	166.296677	-0.061415	-47.573062
2.900000	-0.055928	-42.847352	-66.248841	164.921359	-66.248841	164.921359	-0.062557	-48.371952
2.950000	-0.056954	-43.557667	-65.779011	163.535441	-65.779011	163.535441	-0.063707	-49.169318
3.000000	-0.057987	-44.266781	-65.319379	162.139643	-65.319379	162.139643	-0.064864	-49.965149
3.050000	-0.059028	-44.974682	-64.869530	160.734631	-64.869530	160.734631	-0.066030	-50.759435
3.100000	-0.060076	-45.681360	-64.429079	159.321017	-64.429079	159.321017	-0.067205	-51.552165
3.150000	-0.061133	-46.386805	-63.997662	157.899367	-63.997662	157.899367	-0.068389	-52.343331
3.200000	-0.062198	-47.091008	-63.574940	156.470211	-63.574940	156.470211	-0.069582	-53.132922
3.250000	-0.063272	-47.793959	-63.160593	155.034037	-63.160593	155.034037	-0.070785	-53.920929
3.300000	-0.064355	-48.495649	-62.754320	153.591305	-62.754320	153.591305	-0.071999	-54.707346
3.350000	-0.065449	-49.195847	-62.354019	152.141495	-62.354019	152.141495	-0.073225	-55.491882
3.400000	-0.066554	-49.894712	-61.960967	150.685720	-61.960967	150.685720	-0.074464	-56.274742
3.450000	-0.067664	-50.592903	-61.579925	149.227296	-61.579925	149.227296	-0.075708	-57.056758
3.500000	-0.068791	-51.289073	-61.200504	147.760926	-61.200504	147.760926	-0.076971	-57.836240
3.550000	-0.069922	-51.984789	-60.833878	146.293030	-60.833878	146.293030	-0.078239	-58.615155
3.600000	-0.071072	-52.678233	-60.467286	144.817506	-60.467286	144.817506	-0.079529	-59.391234
3.650000	-0.072225	-53.371447	-60.114112	143.341325	-60.114112	143.341325	-0.080821	-60.167027
3.700000	-0.073400	-54.062135	-59.759619	141.857929	-59.759619	141.857929	-0.082140	-60.939682
3.750000	-0.074576	-54.752824	-59.419028	140.374533	-59.419028	140.374533	-0.083458	-61.712337
3.800000	-0.075778	-55.440732	-59.075967	138.884419	-59.075967	138.884419	-0.084807	-62.481551
3.850000	-0.076980	-56.128641	-58.745943	137.394304	-58.745943	137.394304	-0.086156	-63.250765
3.900000	-0.078208	-56.813979	-58.414935	135.898983	-58.414935	135.898983	-0.087535	-64.016813
3.950000	-0.079439	-57.499085	-58.094935	134.403189	-58.094935	134.403189	-0.088917	-64.782573
4.000000	-0.080694	-58.181837	-57.775245	132.903445	-57.775245	132.903445	-0.090327	-65.545447
4.050000	-0.081955	-58.864120	-57.464770	131.402912	-57.464770	131.402912	-0.091743	-66.307745
4.100000	-0.083239	-59.544272	-57.155725	129.899466	-57.155725	129.899466	-0.093186	-67.067443
4.150000	-0.084531	-60.223715	-56.854311	128.395048	-56.854311	128.395048	-0.094638	-67.826274
4.200000	-0.085845	-60.901255	-56.555299	126.888560	-56.555299	126.888560	-0.096115	-68.582794
4.250000	-0.087170	-61.577844	-56.262513	125.381037	-56.262513	125.381037	-0.097605	-69.338158
4.300000	-0.088515	-62.252762	-55.972969	123.872115	-55.972969	123.872115	-0.099119	-70.091502
4.350000	-0.089875	-62.926486	-55.688407	122.362195	-55.688407	122.362195	-0.100649	-70.843403
4.400000	-0.091253	-63.598774	-55.407811	120.851399	-55.407811	120.851399	-0.102200	-71.593576
4.450000	-0.092649	-64.269625	-55.131095	119.339728	-55.131095	119.339728	-0.103772	-72.342021
4.500000	-0.094062	-64.939276	-54.858968	117.827573	-54.858968	117.827573	-0.105362	-73.089032
4.550000	-0.095496	-65.607248	-54.589742	116.314739	-54.589742	116.314739	-0.106978	-73.834033
4.600000	-0.096943	-66.274259	-54.325640	114.801696	-54.325640	114.801696	-0.108609	-74.577891
4.650000	-0.098417	-66.939349	-54.063569	113.288233	-54.063569	113.288233	-0.110271	-75.319463
4.700000	-0.099902	-67.603719	-53.807080	111.774735	-53.807080	111.774735	-0.111944	-76.060183
4.750000	-0.101417	-68.265926	-53.551849	110.261128	-53.551849	110.261128	-0.113653	-76.798346
4.800000	-0.102940	-68.927654	-53.302591	108.747570	-53.302591	108.747570	-0.115370	-77.535944
4.850000	-0.104498	-69.586982	-53.053902	107.234255	-53.053902	107.234255	-0.117128	-78.270720
4.900000	-0.106060	-70.246070	-52.811517	105.720997	-52.811517	105.720997	-0.118891	-79.005216
4.950000	-0.107663	-70.902523	-52.569090	104.208365	-52.569090	104.208365	-0.120700	-79.736632
5.000000	-0.109266	-71.558976	-52.333245	102.695733	-52.333245	102.695733	-0.122510	-80.468048
5.050000	-0.110916	-72.212562	-52.096814	101.184134	-52.096814	101.184134	-0.124373	-81.196133
5.100000	-0.112565	-72.866147	-51.866647	99.672535	-51.866647	99.672535	-0.126235	-81.924219
5.150000	-0.114258	-73.517113	-51.636512	98.162165	-51.636512	98.162165	-0.128148	-82.649282
5.200000	-0.115956	-74.167841	-51.411793	96.651907	-51.411793	96.651907	-0.130066	-83.374070
5.250000	-0.117695	-74.816198	-51.187656	95.142991	-51.187656	95.142991	-0.132030	-84.096142
5.300000	-0.119442	-75.464081	-50.968166	93.634344	-50.968166	93.634344	-0.134005	-84.817671
5.350000	-0.121227	-76.109840	-50.749749	92.127081	-50.749749	92.127081	-0.136023	-85.536784
5.400000	-0.123026	-76.754892	-50.535281	90.620279	-50.535281	90.620279	-0.138055	-86.255093
5.450000	-0.124859	-77.398069	-50.322326	89.114839	-50.322326	89.114839	-0.140128	-86.971284
5.500000	-0.126711	-78.040307	-50.112683	87.610081	-50.112683	87.610081	-0.142221	-87.686416
5.550000	-0.128594	-78.680916	-49.904947	86.106612	-49.904947	86.106612	-0.144350	-88.399722
5.600000	-0.130500	-79.320360	-49.699945	84.604064	-49.699945	84.604064	-0.146505	-89.111724
5.650000	-0.132435	-79.958418	-49.497200	83.102689	-49.497200	83.102689	-0.148692	-89.822186
5.700000	-0.134397	-80.595090	-49.296665	81.602486	-49.296665	81.602486	-0.150910	-90.531108
5.750000	-0.136384	-81.230616	-49.098699	80.103305	-49.098699	80.103305	-0.153156	-91.238768
5.800000	-0.138405	-81.864539	-48.902467	78.605554	-48.902467	78.605554	-0.155440	-91.944661
5.850000	-0.140446	-82.497553	-48.709083	77.108647	-48.709083	77.108647	-0.157747	-92.649564
5.900000	-0.142526	-83.128752	-48.517000	75.613426	-48.517000	75.613426	-0.160098	-93.352486
5.950000	-0.144622	-83.759278	-48.328012	74.118852	-48.328012	74.118852	-0.162467	-94.054678
6.000000	-0.146764	-84.387781	-48.139934	72.626217	-48.139934	72.626217	-0.164887	-94.754686
6.050000	-0.148917	-85.015840	-47.955170	71.134017	-47.955170	71.134017	-0.167319	-95.454217
6.100000	-0.151122	-85.641677	-47.770963	69.643997	-47.770963	69.643997	-0.169809	-96.151372
6.150000	-0.153333	-86.267295	-47.590262	68.154196	-47.590262	68.154196	-0.172307	-96.848293
6.200000	-0.155604	-86.890498	-47.409802	66.666803	-47.409802	66.666803	-0.174869	-97.542658
6.250000	-0.157874	-87.513701	-47.233014	65.179409	-47.233014	65.179409	-0.177432	-98.237023
6.300000	-0.160211	-88.134303	-47.056186	63.694633	-47.056186	63.694633	-0.180069	-98.928666
6.350000	-0.162549	-88.754905	-46.882887	62.209856	-46.882887	62.209856	-0.182706	-99.620308
6.400000	-0.164948	-89.373155	-46.709873	60.727457	-46.709873	60.727457	-0.185411	-100.309517
6.450000	-0.167354	-89.991191	-46.539963	59.245273	-46.539963	59.245273	-0.188124	-100.998506
6.500000	-0.169818	-90.607120	-46.370638	57.765218	-46.370638	57.765218	-0.190900	-101.685342
6.550000	-0.172295	-91.222627	-46.204027	56.285589	-46.204027	56.285589	-0.193689	-102.371748
6.600000	-0.174825	-91.836267	-46.038275	54.807837	-46.038275	54.807837	-0.196537	-103.056273
6.650000	-0.177373	-92.449284	-45.874883	53.330711	-45.874883	53.330711	-0.199405	-103.740171
6.700000	-0.179970	-93.060668	-45.712598	51.855215	-45.712598	51.855215	-0.202326	-104.422447
6.750000	-0.182592	-93.671235	-45.552353	50.380534	-45.552353	50.380534	-0.205274	-105.103912
6.800000	-0.185258	-94.280397	-45.393438	48.907241	-45.393438	48.907241	-0.208269	-105.784005
6.850000	-0.187956	-94.888556	-45.236276	47.434939	-45.236276	47.434939	-0.211298	-106.463117
6.900000	-0.190692	-95.495532	-45.080644	45.963792	-45.080644	45.963792	-0.214369	-107.141093
6.950000	-0.193467	-96.101325	-44.926510	44.493800	-44.926510	44.493800	-0.217481	-107.817933
7.000000	-0.196276	-96.706152	-44.774081	43.024741	-44.774081	43.024741	-0.220629	-108.493860
7.050000	-0.199130	-97.309625	-44.622929	41.556989	-44.622929	41.556989	-0.223825	-109.168510
7.100000	-0.202012	-97.912340	-44.473632	40.089961	-44.473632	40.089961	-0.227051	-109.842459
7.150000	-0.204947	-98.513539	-44.325423	38.624381	-44.325423	38.624381	-0.230333	-110.515006
7.200000	-0.207904	-99.114181	-44.179195	37.159328	-44.179195	37.159328	-0.233638	-111.187049
7.250000	-0.210922	-99.713153	-44.033898	35.695857	-44.033898	35.695857	-0.237007	-111.857579
7.300000	-0.213956	-100.311761	-43.890683	34.232728	-43.890683	34.232728	-0.240392	-112.527788
7.350000	-0.217059	-100.908555	-43.748276	32.771310	-43.748276	32.771310	-0.243850	-113.196392
7.400000	-0.220171	-101.505170	-43.608025	31.310060	-43.608025	31.310060	-0.247316	-113.864844
7.450000	-0.223361	-102.099835	-43.468491	29.850651	-43.468491	29.850651	-0.250864	-114.531613
7.500000	-0.226552	-102.694500	-43.331163	28.391242	-43.331163	28.391242	-0.254413	-115.198383
7.550000	-0.229831	-103.287087	-43.194495	26.933811	-43.194495	26.933811	-0.258051	-115.863412
7.600000	-0.233111	-103.879674	-43.059943	25.476381	-43.059943	25.476381	-0.261691	-116.528441
7.650000	-0.236474	-104.470404	-42.926249	24.020750	-42.926249	24.020750	-0.265414	-117.191962
7.700000	-0.239844	-105.060966	-42.794474	22.565283	-42.794474	22.565283	-0.269146	-117.855347
7.750000	-0.243292	-105.649884	-42.663730	21.111457	-42.663730	21.111457	-0.272954	-118.517443
7.800000	-0.246755	-106.238474	-42.534738	19.657959	-42.534738	19.657959	-0.276779	-119.179282
7.850000	-0.250289	-106.825624	-42.406923	18.205959	-42.406923	18.205959	-0.280674	-119.840036
7.900000	-0.253848	-107.412296	-42.280728	16.754458	-42.280728	16.754458	-0.284594	-120.500428
7.950000	-0.257470	-107.997725	-42.155828	15.304323	-42.155828	15.304323	-0.288576	-121.159925
8.000000	-0.261125	-108.582533	-42.032447	13.854871	-42.032447	13.854871	-0.292591	-121.818974
8.050000	-0.264837	-109.166288	-41.910452	12.406662	-41.910452	12.406662	-0.296661	-122.477300
8.100000	-0.268591	-109.749290	-41.789907	10.959340	-41.789907	10.959340	-0.300772	-123.135110
8.150000	-0.272395	-110.331416	-41.670812	9.513139	-41.670812	9.513139	-0.304932	-123.792353
8.200000	-0.276250	-110.912668	-41.553131	8.068057	-41.553131	8.068057	-0.309140	-124.449030
8.250000	-0.280148	-111.493215	-41.436934	6.623969	-41.436934	6.623969	-0.313390	-125.105280
8.300000	-0.284106	-112.072775	-41.322147	5.181271	-41.322147	5.181271	-0.317696	-125.760932
8.350000	-0.288099	-112.651790	-41.208848	3.739426	-41.208848	3.739426	-0.322036	-126.416281
8.400000	-0.292162	-113.229716	-41.096990	2.299288	-41.096990	2.299288	-0.326441	-127.071020
8.450000	-0.296252	-113.807249	-40.986593	0.859843	-40.986593	0.859843	-0.330872	-127.725558
8.500000	-0.300422	-114.383602	-40.877699	-0.577523	-40.877699	-0.577523	-0.335377	-128.379496
8.550000	-0.304612	-114.959702	-40.770211	-2.014385	-40.770211	-2.014385	-0.339899	-129.033320
8.600000	-0.308891	-115.534541	-40.664321	-3.448728	-40.664321	-3.448728	-0.344504	-129.686572
8.650000	-0.313182	-116.109258	-40.559749	-4.882796	-40.559749	-4.882796	-0.349119	-130.339777
8.700000	-0.317573	-116.682644	-40.456900	-6.313830	-40.456900	-6.313830	-0.353824	-130.992460
8.750000	-0.321966	-117.256029	-40.355254	-7.744864	-40.355254	-7.744864	-0.358532	-131.645144
8.800000	-0.326471	-117.828023	-40.255485	-9.172263	-40.255485	-9.172263	-0.363338	-132.297377
8.850000	-0.330978	-118.400017	-40.156849	-10.599662	-40.156849	-10.599662	-0.368147	-132.949611
8.900000	-0.335590	-118.970792	-40.060125	-12.023397	-40.060125	-12.023397	-0.373047	-133.601544
8.950000	-0.340214	-119.541456	-39.964538	-13.446797	-39.964538	-13.446797	-0.377957	-134.253449
9.000000	-0.344934	-120.111064	-39.870866	-14.866532	-39.870866	-14.866532	-0.382951	-134.905185
9.050000	-0.349676	-120.680461	-39.778367	-16.285534	-39.778367	-16.285534	-0.387963	-135.556886
9.100000	-0.354507	-121.248955	-39.687755	-17.700909	-39.687755	-17.700909	-0.393050	-136.208528
9.150000	-0.359370	-121.817149	-39.598378	-19.115074	-39.598378	-19.115074	-0.398164	-136.860151
9.200000	-0.364315	-122.384582	-39.510830	-20.525701	-39.510830	-20.525701	-0.403345	-137.511808
9.250000	-0.369301	-122.951635	-39.424610	-21.934559	-39.424610	-21.934559	-0.408561	-138.163481
9.300000	-0.374360	-123.518060	-39.340129	-23.340026	-39.340129	-23.340026	-0.413836	-138.815260
9.350000	-0.379472	-124.084037	-39.257093	-24.743072	-39.257093	-24.743072	-0.419154	-139.467114
9.400000	-0.384647	-124.649509	-39.175681	-26.142946	-39.175681	-26.142946	-0.424522	-140.119126
9.450000	-0.389887	-125.214474	-39.095854	-27.539647	-39.095854	-27.539647	-0.429941	-140.771295
9.500000	-0.395182	-125.779046	-39.017508	-28.933470	-39.017508	-28.933470	-0.435404	-141.423652
9.550000	-0.400553	-126.343065	-38.940909	-30.323266	-38.940909	-30.323266	-0.440924	-142.076272
9.600000	-0.405968	-126.906790	-38.865625	-31.710566	-38.865625	-31.710566	-0.446479	-142.729088
9.650000	-0.411472	-127.469928	-38.792268	-33.092874	-38.792268	-33.092874	-0.452101	-143.382297
9.700000	-0.417011	-128.032863	-38.720038	-34.473161	-38.720038	-34.473161	-0.457749	-144.035689
9.750000	-0.422650	-128.595185	-38.649928	-35.847381	-38.649928	-35.847381	-0.463470	-144.689628
9.800000	-0.428315	-129.157383	-38.580739	-37.220150	-38.580739	-37.220150	-0.469211	-145.343713
9.850000	-0.434092	-129.718957	-38.513878	-38.585667	-38.513878	-38.585667	-0.475031	-145.998527
9.900000	-0.439884	-130.280474	-38.447715	-39.950406	-38.447715	-39.950406	-0.480864	-146.653426
9.950000	-0.445801	-130.841365	-38.384095	-41.306595	-38.384095	-41.306595	-0.486782	-147.309262
10.000000	-0.451723	-131.402256	-38.320938	-42.662784	-38.320938	-42.662784	-0.492705	-147.965097
