! freq	dB(S11)	phase(S11)	dB(S12)	phase(S12)	
!     	dB(S21)	phase(S21)	dB(S22)	phase(S22)	
!S-par simulation data
#  GHz  S  DB  R 50
0.000000	0.000000	0.000000	-402.681532	180.000000	-402.681532	180.000000	-0.000000	0.000000
0.050000	-0.000172	-1.078859	-89.267164	178.968418	-89.267164	178.968418	-0.000139	-0.888942
0.100000	-0.000685	-2.157211	-89.282383	177.395740	-89.282383	177.395740	-0.000551	-1.777492
0.150000	-0.001496	-3.234652	-89.307652	175.932230	-89.307652	175.932230	-0.001205	-2.665335
0.200000	-0.002587	-4.310682	-89.344117	174.487550	-89.344117	174.487550	-0.002088	-3.552079
0.250000	-0.003868	-5.385308	-89.390170	173.038845	-89.390170	173.038845	-0.003129	-4.437723
0.300000	-0.005307	-6.458293	-89.446790	171.576426	-89.446790	171.576426	-0.004303	-5.322074
0.350000	-0.006856	-7.529587	-89.514239	170.093096	-89.514239	170.093096	-0.005573	-6.205083
0.400000	-0.008473	-8.599210	-89.592835	168.582678	-89.592835	168.582678	-0.006906	-7.086758
0.450000	-0.010125	-9.667132	-89.683652	167.036632	-89.683652	167.036632	-0.008272	-7.967069
0.500000	-0.011781	-10.733511	-89.786799	165.449055	-89.786799	165.449055	-0.009648	-8.846136
0.550000	-0.013424	-11.798502	-89.902424	163.814234	-89.902424	163.814234	-0.011017	-9.724084
0.600000	-0.015042	-12.862206	-90.031080	162.124671	-90.031080	162.124671	-0.012369	-10.600997
0.650000	-0.016629	-13.924714	-90.173384	160.371978	-90.173384	160.371978	-0.013697	-11.476949
0.700000	-0.018181	-14.986101	-90.330011	158.546668	-90.330011	158.546668	-0.014998	-12.352007
0.750000	-0.019698	-16.046431	-90.501699	156.637910	-90.501699	156.637910	-0.016271	-13.226227
0.800000	-0.021181	-17.105750	-90.689238	154.633238	-90.689238	154.633238	-0.017516	-14.099653
0.850000	-0.022632	-18.164062	-90.893859	152.514068	-90.893859	152.514068	-0.018734	-14.972293
0.900000	-0.024053	-19.221358	-91.116811	150.257060	-91.116811	150.257060	-0.019926	-15.844150
0.950000	-0.025449	-20.277712	-91.358113	147.848860	-91.358113	147.848860	-0.021098	-16.715286
1.000000	-0.026825	-21.333124	-91.618491	145.265092	-91.618491	145.265092	-0.022251	-17.585706
1.050000	-0.028183	-22.387591	-91.898494	142.476837	-91.898494	142.476837	-0.023389	-18.455411
1.100000	-0.029526	-23.441102	-92.198357	139.449723	-92.198357	139.449723	-0.024513	-19.324397
1.150000	-0.030857	-24.493643	-92.517787	136.142927	-92.517787	136.142927	-0.025627	-20.192655
1.200000	-0.032178	-25.545198	-92.855652	132.508166	-92.855652	132.508166	-0.026732	-21.060174
1.250000	-0.033492	-26.595747	-93.209521	128.488878	-93.209521	128.488878	-0.027830	-21.926942
1.300000	-0.034800	-27.645167	-93.573937	123.969427	-93.573937	123.969427	-0.028923	-22.792865
1.350000	-0.036105	-28.693535	-93.940810	118.914199	-93.940810	118.914199	-0.030012	-23.658002
1.400000	-0.037407	-29.740827	-94.297968	113.247307	-94.297968	113.247307	-0.031099	-24.522333
1.450000	-0.038707	-30.787022	-94.627810	106.900346	-94.627810	106.900346	-0.032186	-25.385841
1.500000	-0.040008	-31.832095	-94.906489	99.828519	-94.906489	99.828519	-0.033272	-26.248508
1.550000	-0.041309	-32.876026	-95.104314	92.033462	-95.104314	92.033462	-0.034358	-27.110313
1.600000	-0.042612	-33.918791	-95.188448	83.588529	-95.188448	83.588529	-0.035446	-27.971239
1.650000	-0.043917	-34.960370	-95.128491	74.655832	-95.128491	74.655832	-0.036536	-28.831267
1.700000	-0.045224	-36.000662	-94.892298	65.484184	-94.892298	65.484184	-0.037628	-29.690319
1.750000	-0.046534	-37.039684	-94.481491	56.404184	-94.481491	56.404184	-0.038724	-30.548403
1.800000	-0.047848	-38.077457	-93.917781	47.687375	-93.917781	47.687375	-0.039822	-31.405532
1.850000	-0.049165	-39.113963	-93.229574	39.524307	-93.229574	39.524307	-0.040924	-32.261689
1.900000	-0.050487	-40.149184	-92.449790	32.015486	-92.449790	32.015486	-0.042029	-33.116857
1.950000	-0.051812	-41.183104	-91.609426	25.182317	-91.609426	25.182317	-0.043138	-33.971019
2.000000	-0.053142	-42.215707	-90.733999	18.991088	-90.733999	18.991088	-0.044250	-34.824161
2.050000	-0.054476	-43.246981	-89.842607	13.377373	-89.842607	13.377373	-0.045367	-35.676267
2.100000	-0.055815	-44.276867	-88.945774	8.278019	-88.945774	8.278019	-0.046489	-36.527287
2.150000	-0.057160	-45.305307	-88.050318	3.620742	-88.050318	3.620742	-0.047615	-37.377172
2.200000	-0.058510	-46.332379	-87.167145	-0.696214	-87.167145	-0.696214	-0.048745	-38.225977
2.250000	-0.059866	-47.358071	-86.298821	-4.735032	-86.298821	-4.735032	-0.049880	-39.073687
2.300000	-0.061228	-48.382375	-85.446415	-8.549832	-85.446415	-8.549832	-0.051020	-39.920291
2.350000	-0.062595	-49.405281	-84.610034	-12.187389	-84.610034	-12.187389	-0.052165	-40.765776
2.400000	-0.063970	-50.426783	-83.789186	-15.688147	-83.789186	-15.688147	-0.053316	-41.610131
2.450000	-0.065351	-51.446875	-82.983032	-19.087271	-82.983032	-19.087271	-0.054471	-42.453345
2.500000	-0.066739	-52.465550	-82.190555	-22.415634	-82.190555	-22.415634	-0.055632	-43.295408
2.550000	-0.068135	-53.482668	-81.405106	-25.698905	-81.405106	-25.698905	-0.056800	-44.136195
2.600000	-0.069540	-54.498360	-80.631424	-28.967684	-80.631424	-28.967684	-0.057973	-44.975809
2.650000	-0.070952	-55.512626	-79.868470	-32.244367	-79.868470	-32.244367	-0.059153	-45.814242
2.700000	-0.072374	-56.525464	-79.115332	-35.549977	-79.115332	-35.549977	-0.060340	-46.651484
2.750000	-0.073804	-57.536874	-78.371258	-38.904578	-78.371258	-38.904578	-0.061533	-47.487527
2.800000	-0.075245	-58.546855	-77.635688	-42.327606	-77.635688	-42.327606	-0.062734	-48.322364
2.850000	-0.076696	-59.555409	-76.908289	-45.838121	-76.908289	-45.838121	-0.063942	-49.155988
2.900000	-0.078157	-60.562539	-76.188989	-49.454993	-76.188989	-49.454993	-0.065158	-49.988391
2.950000	-0.079630	-61.568157	-75.474883	-53.206304	-75.474883	-53.206304	-0.066382	-50.819488
3.000000	-0.081116	-62.572313	-74.768546	-57.108779	-74.768546	-57.108779	-0.067616	-51.649311
3.050000	-0.082614	-63.575059	-74.072736	-61.176651	-74.072736	-61.176651	-0.068859	-52.477896
3.100000	-0.084125	-64.576401	-73.389058	-65.427654	-73.389058	-65.427654	-0.070112	-53.305237
3.150000	-0.085650	-65.576346	-72.719655	-69.878405	-72.719655	-69.878405	-0.071374	-54.131329
3.200000	-0.087189	-66.574903	-72.067248	-74.543696	-72.067248	-74.543696	-0.072647	-54.956168
3.250000	-0.088742	-67.572082	-71.435153	-79.435544	-71.435153	-79.435544	-0.073930	-55.779752
3.300000	-0.090311	-68.567892	-70.827265	-84.562029	-70.827265	-84.562029	-0.075225	-56.602075
3.350000	-0.091897	-69.562302	-70.247903	-89.933508	-70.247903	-89.933508	-0.076532	-57.423095
3.400000	-0.093501	-70.555282	-69.702870	-95.552284	-69.702870	-95.552284	-0.077852	-58.242769
3.450000	-0.095122	-71.546933	-69.197804	-101.389276	-69.197804	-101.389276	-0.079185	-59.061175
3.500000	-0.096761	-72.537271	-68.737343	-107.421961	-68.737343	-107.421961	-0.080531	-59.878313
3.550000	-0.098419	-73.526310	-68.325440	-113.619165	-68.325440	-113.619165	-0.081891	-60.694181
3.600000	-0.100096	-74.514068	-67.964980	-119.942153	-67.964980	-119.942153	-0.083266	-61.508778
3.650000	-0.101793	-75.500563	-67.657452	-126.346694	-67.657452	-126.346694	-0.084655	-62.322105
3.700000	-0.103512	-76.485813	-67.402730	-132.785924	-67.402730	-132.785924	-0.086060	-63.134162
3.750000	-0.105251	-77.469839	-67.199024	-139.213617	-67.199024	-139.213617	-0.087480	-63.944950
3.800000	-0.107015	-78.452549	-67.046951	-145.578669	-67.046951	-145.578669	-0.088918	-64.754346
3.850000	-0.108802	-79.434082	-66.937117	-151.848897	-66.937117	-151.848897	-0.090374	-65.562477
3.900000	-0.110612	-80.414462	-66.863727	-157.998617	-66.863727	-157.998617	-0.091847	-66.369343
3.950000	-0.112447	-81.393716	-66.820591	-164.010917	-66.820591	-164.010917	-0.093338	-67.174948
4.000000	-0.114307	-82.371870	-66.801474	-169.877195	-66.801474	-169.877195	-0.094847	-67.979295
4.050000	-0.116192	-83.348950	-66.800361	-175.596118	-66.800361	-175.596118	-0.096376	-68.782388
4.100000	-0.118104	-84.324987	-66.811645	178.827723	-66.811645	178.827723	-0.097924	-69.584230
4.150000	-0.120042	-85.300011	-66.830233	173.385236	-66.830233	173.385236	-0.099493	-70.384827
4.200000	-0.122010	-86.273991	-66.851499	168.071050	-66.851499	168.071050	-0.101083	-71.184103
4.250000	-0.124008	-87.246999	-66.871004	162.865208	-66.871004	162.865208	-0.102695	-71.982107
4.300000	-0.126035	-88.219098	-66.885332	157.748434	-66.885332	157.748434	-0.104329	-72.778883
4.350000	-0.128091	-89.190328	-66.891589	152.705162	-66.891589	152.705162	-0.105985	-73.574439
4.400000	-0.130178	-90.160725	-66.887271	147.720159	-66.887271	147.720159	-0.107664	-74.368782
4.450000	-0.132297	-91.130329	-66.870214	142.778853	-66.870214	142.778853	-0.109366	-75.161922
4.500000	-0.134447	-92.099183	-66.838544	137.867564	-66.838544	137.867564	-0.111092	-75.953866
4.550000	-0.136630	-93.067328	-66.790641	132.973628	-66.790641	132.973628	-0.112842	-76.744623
4.600000	-0.138848	-94.034792	-66.724473	128.085290	-66.724473	128.085290	-0.114618	-77.534168
4.650000	-0.141101	-95.001605	-66.638049	123.190780	-66.638049	123.190780	-0.116420	-78.322474
4.700000	-0.143390	-95.967862	-66.531558	118.280637	-66.531558	118.280637	-0.118248	-79.109628
4.750000	-0.145715	-96.933612	-66.404191	113.346635	-66.404191	113.346635	-0.120102	-79.895644
4.800000	-0.148076	-97.898911	-66.255321	108.381415	-66.255321	108.381415	-0.121983	-80.680534
4.850000	-0.150474	-98.863814	-66.084513	103.378374	-66.084513	103.378374	-0.123891	-81.464314
4.900000	-0.152911	-99.828380	-65.891533	98.331533	-65.891533	98.331533	-0.125826	-82.246997
4.950000	-0.155386	-100.792671	-65.676362	93.235401	-65.676362	93.235401	-0.127790	-83.028599
5.000000	-0.157901	-101.756750	-65.439213	88.084834	-65.439213	88.084834	-0.129782	-83.809139
5.050000	-0.160460	-102.720678	-65.177726	82.868692	-65.177726	82.868692	-0.131806	-84.588535
5.100000	-0.163061	-103.684545	-64.895410	77.587505	-64.895410	77.587505	-0.133860	-85.366908
5.150000	-0.165704	-104.648425	-64.593342	72.236435	-64.593342	72.236435	-0.135944	-86.144281
5.200000	-0.168391	-105.612397	-64.272914	66.810601	-64.272914	66.810601	-0.138058	-86.920675
5.250000	-0.171122	-106.576542	-63.935843	61.305105	-63.935843	61.305105	-0.140203	-87.696114
5.300000	-0.173898	-107.540947	-63.584187	55.715129	-63.584187	55.715129	-0.142380	-88.470623
5.350000	-0.176721	-108.505703	-63.220352	50.036125	-63.220352	50.036125	-0.144589	-89.244231
5.400000	-0.179610	-109.471120	-62.838405	44.226783	-62.838405	44.226783	-0.146844	-90.016642
5.450000	-0.182516	-110.436719	-62.465718	38.386562	-62.465718	38.386562	-0.149110	-90.788783
5.500000	-0.185506	-111.403422	-62.077247	32.383136	-62.077247	32.383136	-0.151433	-91.559574
5.550000	-0.188523	-112.370574	-61.699147	26.331187	-61.699147	26.331187	-0.153774	-92.329986
5.600000	-0.191608	-113.338849	-61.321828	20.157932	-61.321828	20.157932	-0.156160	-93.099451
5.650000	-0.194744	-114.308125	-60.957085	13.912421	-60.957085	13.912421	-0.158580	-93.868329
5.700000	-0.197930	-115.278401	-60.604031	7.594655	-60.604031	7.594655	-0.161034	-94.636620
5.750000	-0.201186	-116.250285	-60.270844	1.212384	-60.270844	1.212384	-0.163533	-95.404252
5.800000	-0.204492	-117.223366	-59.956733	-5.202246	-59.956733	-5.202246	-0.166065	-96.171468
5.850000	-0.207870	-118.198339	-59.668210	-11.639307	-59.668210	-11.639307	-0.168644	-96.938159
5.900000	-0.211323	-119.175428	-59.409479	-18.052088	-59.409479	-18.052088	-0.171271	-97.704484
5.950000	-0.214829	-120.154103	-59.173704	-24.431179	-59.173704	-24.431179	-0.173933	-98.470610
6.000000	-0.218416	-121.135284	-58.968722	-30.735051	-58.968722	-30.735051	-0.176647	-99.236530
6.050000	-0.222091	-122.119420	-58.794906	-36.912558	-58.794906	-36.912558	-0.179420	-100.002451
6.100000	-0.225828	-123.105709	-58.641642	-42.989574	-58.641642	-42.989574	-0.182235	-100.768471
6.150000	-0.229656	-124.095261	-58.514599	-48.904801	-58.514599	-48.904801	-0.185113	-101.534749
6.200000	-0.233593	-125.088898	-58.411246	-54.610500	-58.411246	-54.610500	-0.188068	-102.301673
6.250000	-0.237604	-126.085440	-58.321333	-60.170875	-58.321333	-60.170875	-0.191081	-103.069204
6.300000	-0.241724	-127.086212	-58.247132	-65.523143	-58.247132	-65.523143	-0.194177	-103.837756
6.350000	-0.245981	-128.092639	-58.184573	-70.621657	-58.184573	-70.621657	-0.197396	-104.608200
6.400000	-0.250334	-129.103009	-58.126921	-75.556866	-58.126921	-75.556866	-0.200709	-105.380258
6.450000	-0.254819	-130.118895	-58.073601	-80.273368	-58.073601	-80.273368	-0.204161	-106.154782
6.500000	-0.259491	-131.142698	-58.018952	-84.716041	-58.018952	-84.716041	-0.207861	-106.934000
6.550000	-0.264292	-132.171939	-57.960726	-88.986618	-57.960726	-88.986618	-0.211776	-107.717227
6.600000	-0.269265	-133.208492	-57.896130	-93.034672	-57.896130	-93.034672	-0.216007	-108.506281
6.650000	-0.274453	-134.254103	-57.818456	-96.829629	-57.818456	-96.829629	-0.220797	-109.304937
6.700000	-0.279896	-135.310370	-57.720440	-100.335929	-57.720440	-100.335929	-0.226517	-110.117993
6.750000	-0.285591	-136.376993	-57.595971	-103.561715	-57.595971	-103.561715	-0.233630	-110.949726
6.800000	-0.291601	-137.456260	-57.426752	-106.431385	-57.426752	-106.431385	-0.243542	-111.812585
6.850000	-0.297977	-138.549911	-57.180897	-108.873675	-57.180897	-108.873675	-0.259408	-112.726461
6.900000	-0.304793	-139.660361	-56.782172	-110.847849	-56.782172	-110.847849	-0.291077	-113.729378
6.950000	-0.312115	-140.789384	-56.079207	-112.773076	-56.079207	-112.773076	-0.370355	-114.840571
7.000000	-0.320068	-141.940731	-54.851628	-117.523504	-54.851628	-117.523504	-0.594012	-115.420253
7.050000	-0.328790	-143.117982	-54.045322	-130.710859	-54.045322	-130.710859	-0.597782	-113.886229
7.100000	-0.338478	-144.325999	-54.850995	-140.688504	-54.850995	-140.688504	-0.390433	-114.474110
7.150000	-0.349440	-145.572047	-55.439435	-142.952654	-55.439435	-142.952654	-0.323013	-115.593283
7.200000	-0.361922	-146.860417	-55.498713	-143.468859	-55.498713	-143.468859	-0.303835	-116.646962
7.250000	-0.376640	-148.206438	-55.127477	-143.890745	-55.127477	-143.890745	-0.309970	-117.659422
7.300000	-0.394064	-149.616836	-54.359575	-145.025937	-54.359575	-145.025937	-0.345587	-118.655343
7.350000	-0.415811	-151.116047	-53.126596	-149.433150	-53.126596	-149.433150	-0.440347	-119.319098
7.400000	-0.443122	-152.725029	-52.184744	-160.866295	-52.184744	-160.866295	-0.440639	-119.197686
7.450000	-0.479027	-154.487396	-52.576614	-171.862620	-52.576614	-171.862620	-0.357853	-119.818461
7.500000	-0.528080	-156.450825	-53.180601	-176.032097	-53.180601	-176.032097	-0.322379	-120.700838
7.550000	-0.599355	-158.708350	-53.302754	-177.017306	-53.302754	-177.017306	-0.309691	-121.564836
7.600000	-0.708549	-161.386711	-53.000806	-177.378622	-53.000806	-177.378622	-0.305235	-122.396530
7.650000	-0.891037	-164.719532	-52.326153	-177.851142	-52.326153	-177.851142	-0.304474	-123.205090
7.700000	-1.229625	-169.089758	-51.244049	-178.976737	-51.244049	-178.976737	-0.305573	-123.998205
7.750000	-1.952604	-175.063103	-49.655196	178.013693	-49.655196	178.013693	-0.307729	-124.780671
7.800000	-3.794384	177.681956	-47.534919	170.133484	-47.534919	170.133484	-0.310538	-125.555529
7.850000	-8.552249	-174.760870	-45.484395	152.609951	-45.484395	152.609951	-0.313756	-126.324831
7.900000	-7.001655	-128.669239	-45.140049	127.960488	-45.140049	127.960488	-0.317143	-127.089964
7.950000	-3.171764	-129.631665	-46.462121	109.768908	-46.462121	109.768908	-0.320211	-127.844344
8.000000	-1.773060	-136.660852	-47.892994	100.044818	-47.892994	100.044818	-0.325769	-128.605151
8.050000	-1.196132	-142.071233	-48.912543	94.358804	-48.912543	94.358804	-0.329910	-129.363813
8.100000	-0.917071	-146.080873	-49.557760	90.063111	-49.557760	90.063111	-0.334197	-130.119444
8.150000	-0.764431	-149.206537	-49.945142	86.055090	-49.945142	86.055090	-0.338611	-130.873432
8.200000	-0.673817	-151.769265	-50.164536	81.925598	-50.164536	81.925598	-0.343127	-131.626244
8.250000	-0.617110	-153.957049	-50.276686	77.538083	-50.276686	77.538083	-0.347732	-132.378159
8.300000	-0.579776	-155.894290	-50.324696	72.880030	-50.324696	72.880030	-0.352411	-133.129417
8.350000	-0.554620	-157.652989	-50.334773	67.978295	-50.334773	67.978295	-0.357157	-133.880197
8.400000	-0.537671	-159.277511	-50.324115	62.870018	-50.324115	62.870018	-0.361964	-134.630644
8.450000	-0.526342	-160.800969	-50.304952	57.604205	-50.304952	57.604205	-0.366828	-135.380904
8.500000	-0.518586	-162.255188	-50.284832	52.241516	-50.284832	52.241516	-0.371739	-136.131111
8.550000	-0.513905	-163.646003	-50.268027	46.812143	-50.268027	46.812143	-0.376701	-136.881379
8.600000	-0.511192	-164.993965	-50.256102	41.362539	-50.256102	41.362539	-0.381706	-137.631802
8.650000	-0.510101	-166.305171	-50.249764	35.922722	-50.249764	35.922722	-0.386753	-138.382487
8.700000	-0.510350	-167.585067	-50.248616	30.522121	-50.248616	30.522121	-0.391845	-139.133555
8.750000	-0.511529	-168.842823	-50.250656	25.174960	-50.250656	25.174960	-0.396974	-139.885044
8.800000	-0.513525	-170.080983	-50.254261	19.899292	-50.254261	19.899292	-0.402145	-140.637077
8.850000	-0.516207	-171.302833	-50.257229	14.706028	-50.257229	14.706028	-0.407356	-141.389758
8.900000	-0.519394	-172.512883	-50.257640	9.589512	-50.257640	9.589512	-0.412606	-142.143093
8.950000	-0.523049	-173.712396	-50.253176	4.556571	-50.253176	4.556571	-0.417897	-142.897227
9.000000	-0.527098	-174.903571	-50.241960	-0.398021	-50.241960	-0.398021	-0.423230	-143.652235
9.050000	-0.531451	-176.088767	-50.223176	-5.288312	-50.223176	-5.288312	-0.428602	-144.408105
9.100000	-0.536099	-177.268802	-50.194580	-10.116980	-50.194580	-10.116980	-0.434019	-145.165015
9.150000	-0.540992	-178.445194	-50.155589	-14.898763	-50.155589	-14.898763	-0.439481	-145.922996
9.200000	-0.546084	-179.619231	-50.106454	-19.649497	-50.106454	-19.649497	-0.444985	-146.682029
9.250000	-0.551374	179.208356	-50.045432	-24.380979	-50.045432	-24.380979	-0.450538	-147.442334
9.300000	-0.556827	178.036557	-49.973510	-29.110862	-49.973510	-29.110862	-0.456138	-148.203887
9.350000	-0.562418	176.864627	-49.891811	-33.854284	-49.891811	-33.854284	-0.461785	-148.966670
9.400000	-0.568152	175.691739	-49.799658	-38.632886	-49.799658	-38.632886	-0.467486	-149.730952
9.450000	-0.574003	174.517320	-49.699585	-43.460938	-49.699585	-43.460938	-0.473239	-150.496641
9.500000	-0.579958	173.340883	-49.593600	-48.352000	-49.593600	-48.352000	-0.479042	-151.263732
9.550000	-0.586029	172.161386	-49.483155	-53.337092	-49.483155	-53.337092	-0.484905	-152.032548
9.600000	-0.592197	170.978670	-49.371984	-58.419656	-49.371984	-58.419656	-0.490822	-152.802919
9.650000	-0.598461	169.792334	-49.263224	-63.609524	-49.263224	-63.609524	-0.496794	-153.574860
9.700000	-0.604847	168.601023	-49.162049	-68.940791	-49.162049	-68.940791	-0.502832	-154.348755
9.750000	-0.611346	167.405016	-49.072152	-74.396943	-49.072152	-74.396943	-0.508929	-155.124344
9.800000	-0.618000	166.202870	-49.001550	-80.000077	-49.001550	-80.000077	-0.515093	-155.901995
9.850000	-0.624810	164.995145	-48.952484	-85.716758	-48.952484	-85.716758	-0.521317	-156.681405
9.900000	-0.631817	163.781104	-48.930515	-91.540784	-48.930515	-91.540784	-0.527605	-157.462723
9.950000	-0.639064	162.560304	-48.940294	-97.452565	-48.940294	-97.452565	-0.533957	-158.246003
10.000000	-0.646607	161.332320	-48.986190	-103.426194	-48.986190	-103.426194	-0.540375	-159.031296
