! freq	dB(S11)	phase(S11)	dB(S12)	phase(S12)	
!     	dB(S21)	phase(S21)	dB(S22)	phase(S22)	
!S-par simulation data
#  GHz  S  DB  R 50
0.000000	0.000000	0.000000	-378.674525	180.000000	-378.674525	180.000000	-0.000000	-0.000000
0.050000	-0.001587	-0.889961	-124.969475	-3.145349	-124.969475	-3.145349	-0.001650	-0.960356
0.100000	-0.003346	-1.765454	-125.997297	-4.182104	-125.997297	-4.182104	-0.003542	-1.905557
0.150000	-0.004366	-2.637827	-128.075868	-6.251883	-128.075868	-6.251883	-0.004660	-2.847187
0.200000	-0.005107	-3.510244	-132.122546	-10.195853	-132.122546	-10.195853	-0.005471	-3.788769
0.250000	-0.005774	-4.382884	-141.149691	-51.092367	-141.149691	-51.092367	-0.006195	-4.730556
0.300000	-0.006457	-5.255530	-134.505013	-171.011237	-134.505013	-171.011237	-0.006931	-5.672331
0.350000	-0.007184	-6.127985	-126.595604	177.627048	-126.595604	177.627048	-0.007713	-6.613887
0.400000	-0.007987	-6.999957	-121.819505	174.794775	-121.819505	174.794775	-0.008574	-7.554900
0.450000	-0.008813	-7.871768	-118.615429	172.628504	-118.615429	172.628504	-0.009459	-8.495732
0.500000	-0.009737	-8.742638	-115.802801	171.040619	-115.802801	171.040619	-0.010449	-9.435511
0.550000	-0.010684	-9.613206	-113.576511	169.500705	-113.576511	169.500705	-0.011463	-10.374951
0.600000	-0.011698	-10.482885	-111.560977	168.062530	-111.560977	168.062530	-0.012549	-11.313393
0.650000	-0.012746	-11.351916	-109.784518	166.635362	-109.784518	166.635362	-0.013671	-12.251105
0.700000	-0.013829	-12.220300	-108.192643	165.219200	-108.192643	165.219200	-0.014830	-13.188088
0.750000	-0.014950	-13.087628	-106.681242	163.785882	-106.681242	163.785882	-0.016031	-14.123876
0.800000	-0.016085	-13.954589	-105.344712	162.345963	-105.344712	162.345963	-0.017246	-15.059250
0.850000	-0.017255	-14.820152	-104.014200	160.860580	-104.014200	160.860580	-0.018498	-15.993035
0.900000	-0.018430	-15.685285	-102.810977	159.356731	-102.810977	159.356731	-0.019757	-16.926329
0.950000	-0.019621	-16.549373	-101.648398	157.808034	-101.648398	157.808034	-0.021032	-17.858430
1.000000	-0.020819	-17.412629	-100.541728	156.216864	-100.541728	156.216864	-0.022314	-18.789578
1.050000	-0.022021	-18.275219	-99.502496	154.591714	-99.502496	154.591714	-0.023601	-19.719962
1.100000	-0.023225	-19.136569	-98.468337	152.894460	-98.468337	152.894460	-0.024890	-20.648918
1.150000	-0.024429	-19.997518	-97.512670	151.173084	-97.512670	151.173084	-0.026179	-21.577412
1.200000	-0.025629	-20.857067	-96.545157	149.361136	-96.545157	149.361136	-0.027464	-22.504288
1.250000	-0.026827	-21.716082	-95.634008	147.511215	-95.634008	147.511215	-0.028746	-23.430544
1.300000	-0.028020	-22.574092	-94.740305	145.589908	-94.740305	145.589908	-0.030023	-24.355635
1.350000	-0.029209	-23.431390	-93.881683	143.614454	-93.881683	143.614454	-0.031294	-25.279899
1.400000	-0.030390	-24.287656	-93.033979	141.558020	-93.033979	141.558020	-0.032558	-26.202960
1.450000	-0.031565	-25.143027	-92.205698	139.427893	-92.205698	139.427893	-0.033814	-27.124980
1.500000	-0.032732	-25.997405	-91.389182	137.212246	-91.389182	137.212246	-0.035062	-28.045839
1.550000	-0.033893	-26.850881	-90.589729	134.915775	-90.589729	134.915775	-0.036303	-28.965644
1.600000	-0.035047	-27.703446	-89.806033	132.534987	-89.806033	132.534987	-0.037536	-29.884385
1.650000	-0.036195	-28.555093	-89.036987	130.066366	-89.036987	130.066366	-0.038763	-30.802052
1.700000	-0.037337	-29.405757	-88.278626	127.500806	-88.278626	127.500806	-0.039983	-31.718569
1.750000	-0.038474	-30.255498	-87.534082	124.841305	-87.534082	124.841305	-0.041197	-32.634004
1.800000	-0.039606	-31.104277	-86.801295	122.081613	-86.801295	122.081613	-0.042405	-33.548314
1.850000	-0.040734	-31.952084	-86.079893	119.218240	-86.079893	119.218240	-0.043609	-34.461485
1.900000	-0.041858	-32.798909	-85.369643	116.247853	-85.369643	116.247853	-0.044808	-35.373506
1.950000	-0.042979	-33.644739	-84.670454	113.167340	-84.670454	113.167340	-0.046004	-36.284363
2.000000	-0.044098	-34.489564	-83.982364	109.973891	-83.982364	109.973891	-0.047197	-37.194044
2.050000	-0.045215	-35.333373	-83.305547	106.665085	-83.305547	106.665085	-0.048388	-38.102536
2.100000	-0.046331	-36.176152	-82.640296	103.238999	-82.640296	103.238999	-0.049578	-39.009825
2.150000	-0.047447	-37.017892	-81.987026	99.694316	-81.987026	99.694316	-0.050767	-39.915899
2.200000	-0.048563	-37.858579	-81.346256	96.030451	-81.346256	96.030451	-0.051956	-40.820744
2.250000	-0.049680	-38.698201	-80.718604	92.247680	-80.718604	92.247680	-0.053147	-41.724348
2.300000	-0.050799	-39.536748	-80.104764	88.347260	-80.104764	88.347260	-0.054338	-42.626698
2.350000	-0.051920	-40.374207	-79.505488	84.331552	-79.505488	84.331552	-0.055533	-43.527781
2.400000	-0.053044	-41.210567	-78.921560	80.204122	-78.921560	80.204122	-0.056730	-44.427585
2.450000	-0.054172	-42.045816	-78.353770	75.969813	-78.353770	75.969813	-0.057932	-45.326098
2.500000	-0.055304	-42.879943	-77.802873	71.634786	-77.802873	71.634786	-0.059137	-46.223309
2.550000	-0.056441	-43.712887	-77.268987	67.202879	-77.268987	67.202879	-0.060348	-47.119149
2.600000	-0.057584	-44.544686	-76.753512	62.687357	-76.753512	62.687357	-0.061565	-48.013662
2.650000	-0.058732	-45.375330	-76.256872	58.098201	-76.256872	58.098201	-0.062789	-48.906840
2.700000	-0.059887	-46.204809	-75.779306	53.446302	-75.779306	53.446302	-0.064019	-49.798671
2.750000	-0.061050	-47.033112	-75.320851	48.743214	-75.320851	48.743214	-0.065257	-50.689146
2.800000	-0.062220	-47.860231	-74.881320	44.000882	-74.881320	44.000882	-0.066504	-51.578257
2.850000	-0.063398	-48.686155	-74.460303	39.231344	-74.460303	39.231344	-0.067759	-52.465994
2.900000	-0.064585	-49.510877	-74.057167	34.446425	-74.057167	34.446425	-0.069024	-53.352350
2.950000	-0.065781	-50.334388	-73.671075	29.657460	-73.671075	29.657460	-0.070299	-54.237316
3.000000	-0.066987	-51.156680	-73.301004	24.875034	-73.301004	24.875034	-0.071585	-55.120887
3.050000	-0.068203	-51.977745	-72.945783	20.108775	-72.945783	20.108775	-0.072881	-56.003056
3.100000	-0.069430	-52.797577	-72.604120	15.367205	-72.604120	15.367205	-0.074189	-56.883816
3.150000	-0.070668	-53.616168	-72.274646	10.657632	-72.274646	10.657632	-0.075510	-57.763162
3.200000	-0.071918	-54.433512	-71.955944	5.986115	-71.955944	5.986115	-0.076843	-58.641091
3.250000	-0.073179	-55.249604	-71.646591	1.357463	-71.646591	1.357463	-0.078189	-59.517597
3.300000	-0.074453	-56.064438	-71.345182	-3.224713	-71.345182	-3.224713	-0.079549	-60.392678
3.350000	-0.075740	-56.878009	-71.050362	-7.757931	-71.050362	-7.757931	-0.080923	-61.266330
3.400000	-0.077041	-57.690313	-70.760844	-12.240728	-70.760844	-12.240728	-0.082312	-62.138551
3.450000	-0.078356	-58.501346	-70.475427	-16.672555	-70.475427	-16.672555	-0.083716	-63.009339
3.500000	-0.079684	-59.311103	-70.193009	-21.053658	-70.193009	-21.053658	-0.085136	-63.878694
3.550000	-0.081028	-60.119583	-69.912588	-25.384959	-69.912588	-25.384959	-0.086572	-64.746614
3.600000	-0.082386	-60.926782	-69.633276	-29.667948	-69.633276	-29.667948	-0.088025	-65.613100
3.650000	-0.083761	-61.732699	-69.354290	-33.904583	-69.354290	-33.904583	-0.089494	-66.478154
3.700000	-0.085151	-62.537331	-69.074957	-38.097193	-69.074957	-38.097193	-0.090981	-67.341775
3.750000	-0.086558	-63.340678	-68.794707	-42.248403	-68.794707	-42.248403	-0.092487	-68.203966
3.800000	-0.087983	-64.142683	-68.512591	-46.359530	-68.512591	-46.359530	-0.094011	-69.064668
3.850000	-0.089424	-64.943401	-68.228672	-50.435410	-68.228672	-50.435410	-0.095555	-69.923946
3.900000	-0.090884	-65.742833	-67.942672	-54.479185	-67.942672	-54.479185	-0.097118	-70.781804
3.950000	-0.092362	-66.540979	-67.654395	-58.494068	-67.654395	-58.494068	-0.098701	-71.638247
4.000000	-0.093859	-67.337842	-67.363718	-62.483308	-67.363718	-62.483308	-0.100305	-72.493280
4.050000	-0.095375	-68.133422	-67.070590	-66.450160	-67.070590	-66.450160	-0.101929	-73.346908
4.100000	-0.096911	-68.927721	-66.775026	-70.397866	-66.775026	-70.397866	-0.103576	-74.199138
4.150000	-0.098466	-69.720743	-66.477099	-74.329629	-66.477099	-74.329629	-0.105243	-75.049976
4.200000	-0.100042	-70.512490	-66.176936	-78.248596	-66.176936	-78.248596	-0.106934	-75.899431
4.250000	-0.101639	-71.302967	-65.874716	-82.157842	-65.874716	-82.157842	-0.108647	-76.747510
4.300000	-0.103258	-72.092175	-65.570665	-86.060349	-65.570665	-86.060349	-0.110384	-77.594221
4.350000	-0.104898	-72.880122	-65.265051	-89.958994	-65.265051	-89.958994	-0.112144	-78.439575
4.400000	-0.106560	-73.666810	-64.958182	-93.856529	-64.958182	-93.856529	-0.113929	-79.283581
4.450000	-0.108245	-74.452246	-64.650399	-97.755561	-64.650399	-97.755561	-0.115738	-80.126249
4.500000	-0.109954	-75.236435	-64.342081	-101.658542	-64.342081	-101.658542	-0.117573	-80.967590
4.550000	-0.111686	-76.019384	-64.033631	-105.567740	-64.033631	-105.567740	-0.119434	-81.807616
4.600000	-0.113442	-76.801099	-63.725482	-109.485228	-63.725482	-109.485228	-0.121320	-82.646339
4.650000	-0.115223	-77.581587	-63.418087	-113.412860	-63.418087	-113.412860	-0.123234	-83.483771
4.700000	-0.117029	-78.360855	-63.111918	-117.352251	-63.111918	-117.352251	-0.125175	-84.319925
4.750000	-0.118861	-79.138913	-62.807463	-121.304761	-62.807463	-121.304761	-0.127144	-85.154816
4.800000	-0.120718	-79.915767	-62.505219	-125.271474	-62.505219	-125.271474	-0.129141	-85.988458
4.850000	-0.122602	-80.691427	-62.205688	-129.253184	-62.205688	-129.253184	-0.131166	-86.820865
4.900000	-0.124513	-81.465902	-61.909374	-133.250380	-61.909374	-133.250380	-0.133221	-87.652053
4.950000	-0.126451	-82.239201	-61.616775	-137.263235	-61.616775	-137.263235	-0.135306	-88.482037
5.000000	-0.128417	-83.011335	-61.328376	-141.291599	-61.328376	-141.291599	-0.137421	-89.310834
5.050000	-0.130413	-83.782264	-61.044477	-145.335617	-61.044477	-145.335617	-0.139567	-90.138410
5.100000	-0.132438	-84.552050	-60.765763	-149.393780	-60.765763	-149.393780	-0.141746	-90.964836
5.150000	-0.134492	-85.320703	-60.492646	-153.464947	-60.492646	-153.464947	-0.143956	-91.790128
5.200000	-0.136576	-86.088237	-60.225501	-157.547691	-60.225501	-157.547691	-0.146198	-92.614305
5.250000	-0.138690	-86.854661	-59.964660	-161.640324	-59.964660	-161.640324	-0.148473	-93.437386
5.300000	-0.140835	-87.619990	-59.710403	-165.740929	-59.710403	-165.740929	-0.150781	-94.259391
5.350000	-0.143012	-88.384236	-59.462959	-169.847398	-59.462959	-169.847398	-0.153123	-95.080339
5.400000	-0.145220	-89.147411	-59.222496	-173.957472	-59.222496	-173.957472	-0.155499	-95.900251
5.450000	-0.147471	-89.909169	-58.989548	-178.068081	-58.989548	-178.068081	-0.157921	-96.718805
5.500000	-0.149740	-90.670381	-58.763151	177.821497	-58.763151	177.821497	-0.160363	-97.536837
5.550000	-0.152049	-91.430347	-58.544348	173.716608	-58.544348	173.716608	-0.162847	-98.353696
5.600000	-0.154387	-92.189425	-58.332205	169.615670	-58.332205	169.615670	-0.165363	-99.169718
5.650000	-0.156761	-92.947468	-58.127161	165.524408	-58.127161	165.524408	-0.167918	-99.984784
5.700000	-0.159171	-93.704477	-57.928842	161.442820	-57.928842	161.442820	-0.170510	-100.798895
5.750000	-0.161611	-94.460652	-57.736769	157.372793	-57.736769	157.372793	-0.173136	-101.612252
5.800000	-0.164094	-95.215661	-57.551344	153.318948	-57.551344	153.318948	-0.175807	-102.424556
5.850000	-0.166602	-95.970026	-57.371152	149.276439	-57.371152	149.276439	-0.178505	-103.236292
5.900000	-0.169161	-96.723106	-57.197282	145.256598	-57.197282	145.256598	-0.181257	-104.046894
5.950000	-0.171739	-97.475722	-57.027654	141.246191	-57.027654	141.246191	-0.184030	-104.857099
6.000000	-0.174374	-98.226947	-56.863715	137.264082	-56.863715	137.264082	-0.186864	-105.666112
6.050000	-0.177023	-98.977876	-56.703184	133.288438	-56.703184	133.288438	-0.189713	-106.474878
6.100000	-0.179738	-99.727323	-56.547387	129.345120	-56.547387	129.345120	-0.192632	-107.282415
6.150000	-0.182460	-100.476629	-56.394413	125.404910	-56.394413	125.404910	-0.195558	-108.089839
6.200000	-0.185255	-101.224380	-56.244928	121.498877	-56.244928	121.498877	-0.198563	-108.896019
6.250000	-0.188051	-101.972130	-56.097971	117.592844	-56.097971	117.592844	-0.201568	-109.702199
6.300000	-0.190929	-102.718266	-55.953024	113.720301	-55.953024	113.720301	-0.204660	-110.507144
6.350000	-0.193808	-103.464402	-55.810455	109.847758	-55.810455	109.847758	-0.207753	-111.312089
6.400000	-0.196763	-104.209137	-55.668560	106.000698	-55.668560	106.000698	-0.210927	-112.116016
6.450000	-0.199725	-104.953744	-55.528800	102.155955	-55.528800	102.155955	-0.214110	-112.919850
6.500000	-0.202759	-105.697151	-55.388730	98.328430	-55.388730	98.328430	-0.217367	-113.722867
6.550000	-0.205807	-106.440317	-55.250386	94.504350	-55.250386	94.504350	-0.220641	-114.525720
6.600000	-0.208921	-107.182470	-55.111111	90.689677	-55.111111	90.689677	-0.223983	-115.327937
6.650000	-0.212056	-107.924286	-54.973016	86.878139	-54.973016	86.878139	-0.227348	-116.129940
6.700000	-0.215251	-108.665264	-54.833714	83.069192	-54.833714	83.069192	-0.230776	-116.931468
6.750000	-0.218475	-109.405822	-54.694953	79.261542	-54.694953	79.261542	-0.234236	-117.732758
6.800000	-0.221752	-110.145703	-54.555014	75.451047	-54.555014	75.451047	-0.237751	-118.533712
6.850000	-0.225066	-110.885099	-54.414933	71.638520	-54.414933	71.638520	-0.241306	-119.334426
6.900000	-0.228427	-111.623963	-54.273961	67.819317	-54.273961	67.819317	-0.244909	-120.134924
6.950000	-0.231833	-112.362295	-54.132176	63.993437	-54.132176	63.993437	-0.248561	-120.935205
7.000000	-0.235278	-113.100225	-53.989979	60.158737	-53.989979	60.158737	-0.252255	-121.735367
7.050000	-0.238778	-113.837593	-53.846369	56.311689	-53.846369	56.311689	-0.256005	-122.535360
7.100000	-0.242309	-114.574673	-53.702955	52.455316	-53.702955	52.455316	-0.259790	-123.335307
7.150000	-0.245903	-115.311179	-53.557658	48.580296	-53.557658	48.580296	-0.263640	-124.135162
7.200000	-0.249522	-116.047495	-53.413216	44.696917	-53.413216	44.696917	-0.267517	-124.935021
7.250000	-0.253212	-116.783244	-53.266607	40.788464	-53.266607	40.788464	-0.271469	-125.734891
7.300000	-0.256919	-117.518885	-53.121495	36.873805	-53.121495	36.873805	-0.275439	-126.534789
7.350000	-0.260707	-118.253986	-52.974165	32.928109	-52.974165	32.928109	-0.279495	-127.334831
7.400000	-0.264505	-118.989042	-52.828885	28.979153	-52.828885	28.979153	-0.283561	-128.134900
7.450000	-0.268392	-119.723604	-52.681601	24.994319	-52.681601	24.994319	-0.287721	-128.935276
7.500000	-0.272282	-120.458167	-52.536772	21.009485	-52.536772	21.009485	-0.291883	-129.735651
7.550000	-0.276270	-121.192306	-52.390430	16.985735	-52.390430	16.985735	-0.296151	-130.536526
7.600000	-0.280261	-121.926446	-52.246512	12.961984	-52.246512	12.961984	-0.300420	-131.337402
7.650000	-0.284345	-122.660305	-52.102317	8.904806	-52.102317	8.904806	-0.304787	-132.138892
7.700000	-0.288439	-123.394138	-51.960243	4.844590	-51.960243	4.844590	-0.309165	-132.940439
7.750000	-0.292620	-124.127819	-51.818970	0.757873	-51.818970	0.757873	-0.313634	-133.742693
7.800000	-0.296820	-124.861469	-51.679665	-3.334143	-51.679665	-3.334143	-0.318122	-134.545087
7.850000	-0.301099	-125.595076	-51.542013	-7.444973	-51.542013	-7.444973	-0.322694	-135.348255
7.900000	-0.305407	-126.328669	-51.406329	-11.562073	-51.406329	-11.562073	-0.327295	-136.151681
7.950000	-0.309787	-127.062312	-51.272872	-15.690275	-51.272872	-15.690275	-0.331971	-136.955919
8.000000	-0.314205	-127.795979	-51.141506	-19.824028	-51.141506	-19.824028	-0.336686	-137.760563
8.050000	-0.318688	-128.529770	-51.012659	-23.961862	-51.012659	-23.961862	-0.341469	-138.566033
8.100000	-0.323219	-129.263649	-50.886093	-28.102613	-50.886093	-28.102613	-0.346300	-139.372091
8.150000	-0.327807	-129.997705	-50.762080	-32.241739	-50.762080	-32.241739	-0.351189	-140.178956
8.200000	-0.332452	-130.731938	-50.640539	-36.379239	-50.640539	-36.379239	-0.356137	-140.986629
8.250000	-0.337147	-131.466381	-50.521381	-40.511160	-50.521381	-40.511160	-0.361135	-141.795061
8.300000	-0.341910	-132.201118	-50.404813	-44.635268	-50.404813	-44.635268	-0.366202	-142.604556
8.350000	-0.346708	-132.936033	-50.290249	-48.753326	-50.290249	-48.753326	-0.371303	-143.414610
8.400000	-0.351571	-133.671304	-50.178086	-52.859286	-50.178086	-52.859286	-0.376470	-144.225782
8.450000	-0.356510	-134.407057	-50.068268	-56.947466	-50.068268	-56.947466	-0.381712	-145.038327
8.500000	-0.361500	-135.143164	-49.960309	-61.022423	-49.960309	-61.022423	-0.387004	-145.851817
8.550000	-0.366540	-135.879641	-49.854112	-65.083577	-49.854112	-65.083577	-0.392346	-146.666274
8.600000	-0.371649	-136.616668	-49.749649	-69.124420	-49.749649	-69.124420	-0.397754	-147.482111
8.650000	-0.376822	-137.354269	-49.646636	-73.144943	-49.646636	-73.144943	-0.403225	-148.299316
8.700000	-0.382047	-138.092353	-49.544883	-77.149106	-49.544883	-77.149106	-0.408745	-149.117638
8.750000	-0.387324	-138.830936	-49.444295	-81.136683	-49.444295	-81.136683	-0.414316	-149.937099
8.800000	-0.392684	-139.570420	-49.344548	-85.096871	-49.344548	-85.096871	-0.419966	-150.758534
8.850000	-0.398097	-140.310505	-49.245579	-89.040628	-49.245579	-89.040628	-0.425665	-151.581240
8.900000	-0.403562	-141.051211	-49.147320	-92.968231	-49.147320	-92.968231	-0.431414	-152.405244
8.950000	-0.409093	-141.792749	-49.049532	-96.875884	-49.049532	-96.875884	-0.437225	-153.230954
9.000000	-0.414695	-142.535253	-48.952013	-100.763769	-48.952013	-100.763769	-0.443101	-154.058587
9.050000	-0.420350	-143.278504	-48.854930	-104.638290	-48.854930	-104.638290	-0.449026	-154.887681
9.100000	-0.426058	-144.022523	-48.758260	-108.500047	-48.758260	-108.500047	-0.455000	-155.718263
9.150000	-0.431844	-144.767808	-48.661625	-112.344741	-48.661625	-112.344741	-0.461046	-156.551244
9.200000	-0.437688	-145.514050	-48.565389	-116.179765	-48.565389	-116.179765	-0.467144	-157.385998
9.250000	-0.443584	-146.261195	-48.469662	-120.007015	-48.469662	-120.007015	-0.473289	-158.222412
9.300000	-0.449541	-147.009446	-48.374423	-123.826618	-48.374423	-123.826618	-0.479489	-159.060836
9.350000	-0.455572	-147.759144	-48.279844	-127.640495	-48.279844	-127.640495	-0.485755	-159.901842
9.400000	-0.461655	-148.509887	-48.186282	-131.452555	-48.186282	-131.452555	-0.492066	-160.744687
9.450000	-0.467789	-149.261698	-48.093843	-135.263730	-48.093843	-135.263730	-0.498422	-161.589399
9.500000	-0.473995	-150.015137	-48.003039	-139.076651	-48.003039	-139.076651	-0.504841	-162.436921
9.550000	-0.480259	-150.769973	-47.914314	-142.893825	-47.914314	-142.893825	-0.511311	-163.286819
9.600000	-0.486574	-151.526026	-47.827778	-146.715759	-47.827778	-146.715759	-0.517824	-164.138772
9.650000	-0.492943	-152.283441	-47.743800	-150.543944	-47.743800	-150.543944	-0.524383	-164.993007
9.700000	-0.499385	-153.042886	-47.664138	-154.383662	-47.664138	-154.383662	-0.531004	-165.850602
9.750000	-0.505875	-153.803706	-47.588205	-158.231933	-47.588205	-158.231933	-0.537664	-166.710448
9.800000	-0.512412	-154.565926	-47.516236	-162.089013	-47.516236	-162.089013	-0.544365	-167.572576
9.850000	-0.519013	-155.330123	-47.450231	-165.958631	-47.450231	-165.958631	-0.551116	-168.437900
9.900000	-0.525670	-156.096256	-47.390944	-169.839610	-47.390944	-169.839610	-0.557914	-169.306316
9.950000	-0.532374	-156.863955	-47.337559	-173.728763	-47.337559	-173.728763	-0.564747	-170.177219
10.000000	-0.539122	-157.633247	-47.290335	-177.625661	-47.290335	-177.625661	-0.571617	-171.050640
