! freq	dB(S11)	phase(S11)	dB(S12)	phase(S12)	
!     	dB(S21)	phase(S21)	dB(S22)	phase(S22)	
!S-par simulation data
#  GHz  S  DB  R 50
0.000000	-81.796137	0.000000	-0.000706	0.000000	-0.000706	0.000000	-81.796137	0.000000
0.050000	-43.120140	-88.542540	-0.008257	-2.841094	-0.008257	-2.841094	-43.122301	-89.487925
0.100000	-37.389759	-94.024052	-0.014144	-5.627131	-0.014144	-5.627131	-37.361197	-92.697935
0.150000	-33.969037	-98.312796	-0.018459	-8.411302	-0.018459	-8.411302	-33.952930	-95.869542
0.200000	-31.534254	-102.090441	-0.022924	-11.195874	-0.022924	-11.195874	-31.519306	-98.805233
0.250000	-29.646579	-105.629690	-0.027876	-13.979313	-0.027876	-13.979313	-29.629750	-101.567882
0.300000	-28.106989	-109.045871	-0.033306	-16.760839	-0.033306	-16.760839	-28.088698	-104.211516
0.350000	-26.808793	-112.395437	-0.039130	-19.540285	-0.039130	-19.540285	-26.790013	-106.772431
0.400000	-25.688485	-115.706556	-0.045275	-22.317724	-0.045275	-22.317724	-25.669948	-109.273109
0.450000	-24.705345	-118.994768	-0.051687	-25.093309	-0.051687	-25.093309	-24.687457	-111.728584
0.500000	-23.831169	-122.269837	-0.058322	-27.867312	-0.058322	-27.867312	-23.814080	-114.151166
0.550000	-23.045902	-125.537233	-0.065157	-30.639950	-0.065157	-30.639950	-23.029620	-116.548755
0.600000	-22.334733	-128.800419	-0.072177	-33.411400	-0.072177	-33.411400	-22.319200	-118.926797
0.650000	-21.686554	-132.061751	-0.079379	-36.181793	-0.079379	-36.181793	-21.671692	-121.288883
0.700000	-21.092512	-135.322999	-0.086759	-38.951256	-0.086759	-38.951256	-21.078243	-123.637806
0.750000	-20.545475	-138.585473	-0.094309	-41.719896	-0.094309	-41.719896	-20.531736	-125.975467
0.800000	-20.039766	-141.850244	-0.102028	-44.487793	-0.102028	-44.487793	-20.026510	-128.302960
0.850000	-19.570831	-145.118304	-0.109913	-47.255013	-0.109913	-47.255013	-19.558032	-130.620814
0.900000	-19.134711	-148.390512	-0.117955	-50.021629	-0.117955	-50.021629	-19.122360	-132.929409
0.950000	-18.728137	-151.667711	-0.126150	-52.787712	-0.126150	-52.787712	-18.716240	-135.228792
1.000000	-18.348343	-154.950744	-0.134487	-55.553335	-0.134487	-55.553335	-18.336919	-137.518808
1.050000	-17.992826	-158.240351	-0.142956	-58.318584	-0.142956	-58.318584	-17.981908	-139.799305
1.100000	-17.659466	-161.537291	-0.151546	-61.083547	-0.151546	-61.083547	-17.649095	-142.069982
1.150000	-17.346398	-164.842309	-0.160245	-63.848321	-0.160245	-63.848321	-17.336623	-144.330492
1.200000	-17.051962	-168.156121	-0.169042	-66.613015	-0.169042	-66.613015	-17.042842	-146.580466
1.250000	-16.774673	-171.479415	-0.177925	-69.377745	-0.177925	-69.377745	-16.766271	-148.819538
1.300000	-16.513306	-174.813020	-0.186882	-72.142642	-0.186882	-72.142642	-16.505690	-151.047173
1.350000	-16.266514	-178.157389	-0.195901	-74.907845	-0.195901	-74.907845	-16.259752	-153.263237
1.400000	-16.033179	178.486920	-0.204971	-77.673499	-0.204971	-77.673499	-16.027340	-155.467466
1.450000	-15.812272	175.119403	-0.214082	-80.439761	-0.214082	-80.439761	-15.807420	-157.659656
1.500000	-15.602838	171.739620	-0.223225	-83.206794	-0.223225	-83.206794	-15.599035	-159.839676
1.550000	-15.403987	168.347195	-0.232392	-85.974771	-0.232392	-85.974771	-15.401288	-162.007470
1.600000	-15.214888	164.941825	-0.241577	-88.743871	-0.241577	-88.743871	-15.213340	-164.163070
1.650000	-15.034758	161.523283	-0.250773	-91.514279	-0.250773	-91.514279	-15.034398	-166.306602
1.700000	-14.862858	158.091425	-0.259978	-94.286187	-0.259978	-94.286187	-14.863713	-168.438292
1.750000	-14.698488	154.646191	-0.269190	-97.059789	-0.269190	-97.059789	-14.700574	-170.558470
1.800000	-14.540984	151.187615	-0.278409	-99.835286	-0.278409	-99.835286	-14.544304	-172.667575
1.850000	-14.389712	147.715824	-0.287635	-102.612878	-0.287635	-102.612878	-14.394261	-174.766157
1.900000	-14.244098	144.230906	-0.296873	-105.392796	-0.296873	-105.392796	-14.249857	-176.854782
1.950000	-14.103550	140.733209	-0.306129	-108.175252	-0.306129	-108.175252	-14.110493	-178.934259
2.000000	-13.967481	137.223316	-0.315409	-110.960423	-0.315409	-110.960423	-13.975576	178.994406
2.050000	-13.835365	133.701783	-0.324723	-113.748511	-0.324723	-113.748511	-13.844571	176.930199
2.100000	-13.706695	130.169276	-0.334083	-116.539715	-0.334083	-116.539715	-13.716971	174.871997
2.150000	-13.580988	126.626572	-0.343502	-119.334230	-0.343502	-119.334230	-13.592292	172.818572
2.200000	-13.457785	123.074563	-0.352996	-122.132245	-0.352996	-122.132245	-13.470076	170.768593
2.250000	-13.336646	119.514252	-0.362582	-124.933945	-0.362582	-124.933945	-13.349890	168.720633
2.300000	-13.217158	115.946751	-0.372278	-127.739504	-0.372278	-127.739504	-13.231324	166.673177
2.350000	-13.098928	112.373279	-0.382107	-130.549092	-0.382107	-130.549092	-13.113996	164.624629
2.400000	-12.981586	108.795154	-0.392090	-133.362867	-0.392090	-133.362867	-12.997546	162.573321
2.450000	-12.864788	105.213787	-0.402253	-136.180974	-0.402253	-136.180974	-12.881641	160.517521
2.500000	-12.748214	101.630677	-0.412620	-139.003550	-0.412620	-139.003550	-12.765972	158.455447
2.550000	-12.631528	98.047430	-0.423225	-141.830819	-0.423225	-141.830819	-12.650218	156.385056
2.600000	-12.514489	94.465727	-0.434091	-144.662789	-0.434091	-144.662789	-12.534150	154.304630
2.650000	-12.396858	90.887262	-0.445248	-147.499551	-0.445248	-147.499551	-12.417537	152.212297
2.700000	-12.278419	87.313764	-0.456726	-150.341178	-0.456726	-150.341178	-12.300175	150.106186
2.750000	-12.158983	83.746988	-0.468556	-153.187725	-0.468556	-153.187725	-12.181882	147.984432
2.800000	-12.038389	80.188695	-0.480767	-156.039226	-0.480767	-156.039226	-12.062502	145.845192
2.850000	-11.916500	76.640642	-0.493390	-158.895698	-0.493390	-158.895698	-11.941902	143.686658
2.900000	-11.793206	73.104561	-0.506454	-161.757137	-0.506454	-161.757137	-11.819973	141.507067
2.950000	-11.668423	69.582148	-0.519985	-164.623517	-0.519985	-164.623517	-11.696626	139.304713
3.000000	-11.542089	66.075048	-0.534008	-167.494796	-0.534008	-167.494796	-11.571796	137.077960
3.050000	-11.414164	62.584838	-0.548545	-170.370916	-0.548545	-170.370916	-11.445435	134.825249
3.100000	-11.284634	59.113017	-0.563613	-173.251812	-0.563613	-173.251812	-11.317517	132.545107
3.150000	-11.153461	55.661225	-0.579230	-176.137463	-0.579230	-176.137463	-11.187994	130.235831
3.200000	-11.020666	52.230809	-0.595404	-179.027808	-0.595404	-179.027808	-11.056871	127.896109
3.250000	-10.886330	48.822742	-0.612131	178.077243	-0.612131	178.077243	-10.924211	125.525099
3.300000	-10.750506	45.438096	-0.629410	175.177690	-0.629410	175.177690	-10.790052	123.121761
3.350000	-10.613262	42.077816	-0.647238	172.273489	-0.647238	172.273489	-10.654442	120.685174
3.400000	-10.474680	38.742721	-0.665611	169.364539	-0.665611	169.364539	-10.517445	118.214539
3.450000	-10.334847	35.433497	-0.684532	166.450685	-0.684532	166.450685	-10.379133	115.709180
3.500000	-10.193864	32.150699	-0.704011	163.531729	-0.704011	163.531729	-10.239586	113.168546
3.550000	-10.051834	28.894751	-0.724066	160.607453	-0.724066	160.607453	-10.098895	110.592212
3.600000	-9.908869	25.665945	-0.744730	157.677642	-0.744730	157.677642	-9.957154	107.979874
3.650000	-9.765083	22.464446	-0.766044	154.742116	-0.766044	154.742116	-9.814466	105.331350
3.700000	-9.620593	19.290295	-0.788058	151.800750	-0.788058	151.800750	-9.670938	102.646577
3.750000	-9.475520	16.143415	-0.810826	148.853487	-0.810826	148.853487	-9.526680	99.925607
3.800000	-9.329922	13.024196	-0.834419	145.900217	-0.834419	145.900217	-9.381743	97.167823
3.850000	-9.183986	9.931737	-0.858872	142.941144	-0.858872	142.941144	-9.236311	94.374287
3.900000	-9.037832	6.865632	-0.884231	139.976395	-0.884231	139.976395	-9.090504	91.545374
3.950000	-8.891580	3.825380	-0.910534	137.006118	-0.910534	137.006118	-8.944440	88.681551
4.000000	-8.745347	0.810395	-0.937814	134.030477	-0.937814	134.030477	-8.798239	85.783372
4.050000	-8.599248	-2.179989	-0.966095	131.049635	-0.966095	131.049635	-8.652023	82.851471
4.100000	-8.453397	-5.146508	-0.995400	128.063745	-0.995400	128.063745	-8.505911	79.886554
4.150000	-8.307905	-8.089963	-1.025746	125.072944	-1.025746	125.072944	-8.360022	76.889393
4.200000	-8.162880	-11.011211	-1.057147	122.077350	-1.057147	122.077350	-8.214473	73.860817
4.250000	-8.018428	-13.911159	-1.089616	119.077062	-1.089616	119.077062	-8.069381	70.801705
4.300000	-7.874651	-16.790757	-1.123164	116.072161	-1.123164	116.072161	-7.924861	67.712977
4.350000	-7.731650	-19.650991	-1.157804	113.062707	-1.157804	113.062707	-7.781024	64.595587
4.400000	-7.589506	-22.492689	-1.193556	110.048695	-1.193556	110.048695	-7.637964	61.450223
4.450000	-7.448317	-25.316929	-1.230432	107.030153	-1.230432	107.030153	-7.495793	58.277915
4.500000	-7.308190	-28.124972	-1.268434	104.007139	-1.268434	104.007139	-7.354632	55.079971
4.550000	-7.169212	-30.917894	-1.307574	100.979650	-1.307574	100.979650	-7.214580	51.857395
4.600000	-7.031467	-33.696782	-1.347867	97.947670	-1.347867	97.947670	-7.075735	48.611185
4.650000	-6.895033	-36.462728	-1.389327	94.911166	-1.389327	94.911166	-6.938189	45.342323
4.700000	-6.759988	-39.216831	-1.431970	91.870094	-1.431970	91.870094	-6.802030	42.051767
4.750000	-6.626404	-41.960190	-1.475813	88.824394	-1.475813	88.824394	-6.667343	38.740447
4.800000	-6.494349	-44.693906	-1.520874	85.773993	-1.520874	85.773993	-6.534206	35.409253
4.850000	-6.363886	-47.419079	-1.567171	82.718798	-1.567171	82.718798	-6.402693	32.059029
4.900000	-6.235073	-50.136808	-1.614724	79.658702	-1.614724	79.658702	-6.272874	28.690569
4.950000	-6.107965	-52.848191	-1.663557	76.593573	-1.663557	76.593573	-6.144811	25.304609
5.000000	-5.982610	-55.554331	-1.713690	73.523261	-1.713690	73.523261	-6.018561	21.901816
5.050000	-5.859052	-58.256266	-1.765172	70.447465	-1.765172	70.447465	-5.894178	18.482447
5.100000	-5.737330	-60.955221	-1.818008	67.366090	-1.818008	67.366090	-5.771709	15.047384
5.150000	-5.617474	-63.652316	-1.872226	64.278893	-1.872226	64.278893	-5.651189	11.597054
5.200000	-5.499506	-66.348684	-1.927858	61.185594	-1.927858	61.185594	-5.532649	8.131797
5.250000	-5.383443	-69.045477	-1.984940	58.085871	-1.984940	58.085871	-5.416111	4.651855
5.300000	-5.269293	-71.743870	-2.043510	54.979356	-2.043510	54.979356	-5.301590	1.157368
5.350000	-5.157058	-74.445071	-2.103613	51.865627	-2.103613	51.865627	-5.189093	-2.351630
5.400000	-5.046730	-77.150324	-2.165298	48.744205	-2.165298	48.744205	-5.078618	-5.875221
5.450000	-4.938293	-79.860919	-2.228621	45.614543	-2.228621	45.614543	-4.970155	-9.413604
5.500000	-4.831723	-82.578200	-2.293648	42.476028	-2.293648	42.476028	-4.863684	-12.967105
5.550000	-4.726988	-85.303575	-2.360453	39.327964	-2.360453	39.327964	-4.759177	-16.536181
5.600000	-4.624044	-88.038527	-2.429123	36.169571	-2.429123	36.169571	-4.656595	-20.121426
5.650000	-4.522845	-90.784766	-2.499772	32.999844	-2.499772	32.999844	-4.555897	-23.723774
5.700000	-4.423328	-93.544020	-2.572522	29.817772	-2.572522	29.817772	-4.457023	-27.344151
5.750000	-4.325414	-96.317960	-2.647493	26.622382	-2.647493	26.622382	-4.359894	-30.983434
5.800000	-4.229020	-99.108505	-2.724845	23.412465	-2.724845	23.412465	-4.264428	-34.642855
5.850000	-4.134052	-101.917724	-2.804762	20.186678	-2.804762	20.186678	-4.170531	-38.323818
5.900000	-4.040405	-104.747849	-2.887462	16.943545	-2.887462	16.943545	-4.078096	-42.027918
5.950000	-3.947963	-107.601302	-2.973196	13.681438	-2.973196	13.681438	-3.987005	-45.756944
6.000000	-3.856600	-110.480713	-3.062259	10.398574	-3.062259	10.398574	-3.897126	-49.512894
6.050000	-3.766178	-113.388947	-3.154995	7.092999	-3.154995	7.092999	-3.808312	-53.297990
6.100000	-3.676549	-116.329134	-3.251803	3.762582	-3.251803	3.762582	-3.720404	-57.114687
6.150000	-3.587553	-119.304700	-3.353152	0.405001	-3.353152	0.405001	-3.633230	-60.965691
6.200000	-3.499022	-122.319397	-3.459587	-2.982266	-3.459587	-2.982266	-3.546601	-64.853977
6.250000	-3.410777	-125.377349	-3.571748	-6.401951	-3.571748	-6.401951	-3.460318	-68.782806
6.300000	-3.322611	-128.484247	-3.690503	-9.857847	-3.690503	-9.857847	-3.374146	-72.756795
6.350000	-3.234343	-131.644182	-3.816642	-13.352441	-3.816642	-13.352441	-3.287868	-76.778988
6.400000	-3.145777	-134.862702	-3.951202	-16.889153	-3.951202	-16.889153	-3.201247	-80.853666
6.450000	-3.056715	-138.145929	-4.095407	-20.471621	-4.095407	-20.471621	-3.114037	-84.985490
6.500000	-2.966963	-141.500626	-4.250700	-24.103695	-4.250700	-24.103695	-3.025990	-89.179534
6.550000	-2.876339	-144.934259	-4.418791	-27.789405	-4.418791	-27.789405	-2.936856	-93.441312
6.600000	-2.784676	-148.455079	-4.601715	-31.532912	-4.601715	-31.532912	-2.846394	-97.776807
6.650000	-2.691836	-152.072186	-4.801903	-35.338429	-4.801903	-35.338429	-2.754379	-102.192498
6.700000	-2.597773	-155.792891	-5.021867	-39.208475	-5.021867	-39.208475	-2.660682	-106.693192
6.750000	-2.502311	-159.634793	-5.266098	-43.150875	-5.266098	-43.150875	-2.564983	-111.291742
6.800000	-2.405562	-163.606424	-5.538379	-47.166655	-5.538379	-47.166655	-2.467287	-115.993292
6.850000	-2.307665	-167.721040	-5.843966	-51.258031	-5.843966	-51.258031	-2.367594	-120.806474
6.900000	-2.208890	-171.993028	-6.189346	-55.425440	-6.189346	-55.425440	-2.266023	-125.740405
6.950000	-2.109677	-176.437889	-6.582597	-59.666429	-6.582597	-59.666429	-2.162851	-130.804603
7.000000	-2.010676	178.927858	-7.033894	-63.973919	-7.033894	-63.973919	-2.058553	-136.008841
7.050000	-1.912798	174.086850	-7.556220	-68.333429	-7.556220	-68.333429	-1.953854	-141.362923
7.100000	-1.817282	169.020007	-8.166686	-72.718417	-8.166686	-72.718417	-1.849788	-146.877158
7.150000	-1.725770	163.707811	-8.887985	-77.080992	-8.887985	-77.080992	-1.747789	-152.561221
7.200000	-1.640273	158.135071	-9.749691	-81.338520	-9.749691	-81.338520	-1.649690	-158.420761
7.250000	-1.563125	152.289450	-10.792461	-85.351265	-10.792461	-85.351265	-1.557676	-164.458434
7.300000	-1.497414	146.151640	-12.077773	-88.848315	-12.077773	-88.848315	-1.474607	-170.679720
7.350000	-1.446484	139.713299	-13.693193	-91.300015	-13.693193	-91.300015	-1.403696	-177.080839
7.400000	-1.413875	132.972685	-15.765641	-91.569128	-15.765641	-91.569128	-1.348399	176.348391
7.450000	-1.403296	125.933426	-18.437052	-86.877619	-18.437052	-86.877619	-1.312373	169.624183
7.500000	-1.418283	118.607569	-21.458474	-70.376294	-21.458474	-70.376294	-1.299171	162.770792
7.550000	-1.462083	111.014701	-22.350746	-37.169219	-22.350746	-37.169219	-1.312116	155.820440
7.600000	-1.536602	103.187664	-19.640148	-11.921833	-19.640148	-11.921833	-1.353321	148.814688
7.650000	-1.642647	95.165524	-16.484421	-3.163889	-16.484421	-3.163889	-1.423882	141.800361
7.700000	-1.779465	86.993769	-13.940604	-2.282585	-13.940604	-2.282585	-1.523441	134.827944
7.750000	-1.944736	78.721411	-11.951517	-4.837817	-11.951517	-4.837817	-1.650183	127.949178
7.800000	-2.134176	70.399543	-10.376361	-9.033044	-10.376361	-9.033044	-1.800428	121.211403
7.850000	-2.342376	62.076624	-9.111642	-14.079328	-9.111642	-14.079328	-1.969457	114.657120
7.900000	-2.562832	53.797066	-8.085618	-19.565471	-8.085618	-19.565471	-2.151481	108.318192
7.950000	-2.788713	45.599222	-7.247538	-25.261798	-7.247538	-25.261798	-2.340375	102.216060
8.000000	-3.013159	37.517161	-6.561326	-31.031192	-6.561326	-31.031192	-2.529998	96.365697
8.050000	-3.229854	29.577688	-5.998434	-36.786866	-5.998434	-36.786866	-2.714612	90.768886
8.100000	-3.433476	21.801408	-5.536463	-42.475976	-5.536463	-42.475976	-2.889321	85.418812
8.150000	-3.619435	14.207017	-5.158651	-48.065264	-5.158651	-48.065264	-3.049880	80.306430
8.200000	-3.784558	6.806861	-4.850737	-53.536395	-4.850737	-53.536395	-3.193228	75.415027
8.250000	-3.926879	-0.390700	-4.601163	-58.880646	-4.601163	-58.880646	-3.317340	70.725207
8.300000	-4.045428	-7.379992	-4.400687	-64.095069	-4.400687	-64.095069	-3.421053	66.217203
8.350000	-4.140156	-14.158318	-4.241746	-69.180677	-4.241746	-69.180677	-3.504014	61.871269
8.400000	-4.211777	-20.725669	-4.118128	-74.140954	-4.118128	-74.140954	-3.566546	57.668559
8.450000	-4.261582	-27.084429	-4.024708	-78.980831	-4.024708	-78.980831	-3.609511	53.591734
8.500000	-4.291272	-33.239062	-3.957242	-83.705982	-3.957242	-83.705982	-3.634169	49.625318
8.550000	-4.302806	-39.195766	-3.912197	-88.322356	-3.912197	-88.322356	-3.642059	45.755855
8.600000	-4.298110	-44.960074	-3.886806	-92.834783	-3.886806	-92.834783	-3.634734	41.972775
8.650000	-4.279498	-50.542826	-3.878346	-97.250172	-3.878346	-97.250172	-3.614162	38.265566
8.700000	-4.249027	-55.953393	-3.884709	-101.573925	-3.884709	-101.573925	-3.582129	34.626524
8.750000	-4.208646	-61.201519	-3.904097	-105.811058	-3.904097	-105.811058	-3.540370	31.049507
8.800000	-4.160160	-66.297107	-3.934959	-109.966207	-3.934959	-109.966207	-3.490527	27.529692
8.850000	-4.105213	-71.250013	-3.975949	-114.043637	-3.975949	-114.043637	-3.434129	24.063363
8.900000	-4.045277	-76.069893	-4.025888	-118.047264	-4.025888	-118.047264	-3.372575	20.647705
8.950000	-3.981656	-80.766082	-4.083729	-121.980688	-4.083729	-121.980688	-3.307124	17.280617
9.000000	-3.915487	-85.347518	-4.148544	-125.847229	-4.148544	-125.847229	-3.238899	13.960555
9.050000	-3.847739	-89.821648	-4.219545	-129.649310	-4.219545	-129.649310	-3.168869	10.686870
9.100000	-3.779281	-94.197607	-4.295912	-133.390443	-4.295912	-133.390443	-3.097924	7.458286
9.150000	-3.710821	-98.482996	-4.376951	-137.073352	-4.376951	-137.073352	-3.026799	4.274156
9.200000	-3.642965	-102.682571	-4.462106	-140.698986	-4.462106	-140.698986	-2.956131	1.135280
9.250000	-3.576187	-106.807782	-4.550613	-144.273027	-4.550613	-144.273027	-2.886440	-1.961364
9.300000	-3.510866	-110.862641	-4.642032	-147.796449	-4.642032	-147.796449	-2.818137	-5.015193
9.350000	-3.447388	-114.850446	-4.735892	-151.269551	-4.735892	-151.269551	-2.751647	-8.024845
9.400000	-3.385864	-118.781625	-4.831652	-154.698485	-4.831652	-154.698485	-2.687118	-10.994403
9.450000	-3.326721	-122.653816	-4.928933	-158.079399	-4.928933	-158.079399	-2.625015	-13.918761
9.500000	-3.269797	-126.479897	-5.027294	-161.421203	-5.027294	-161.421203	-2.565206	-16.805024
9.550000	-3.215528	-130.256294	-5.126310	-164.719082	-5.126310	-164.719082	-2.508166	-19.647015
9.600000	-3.163667	-133.993559	-5.225685	-167.980826	-5.225685	-167.980826	-2.453666	-22.451264
9.650000	-3.114460	-137.691283	-5.324995	-171.204577	-5.324995	-171.204577	-2.401993	-25.214512
9.700000	-3.067743	-141.355803	-5.424007	-174.395018	-5.424007	-174.395018	-2.352995	-27.940499
9.750000	-3.023607	-144.988661	-5.522352	-177.552404	-5.522352	-177.552404	-2.306795	-30.628221
9.800000	-2.982068	-148.592470	-5.619680	179.321887	-5.619680	179.321887	-2.263441	-33.277823
9.850000	-2.942964	-152.171450	-5.715817	176.224415	-5.715817	176.224415	-2.222783	-35.892063
9.900000	-2.906285	-155.727667	-5.810460	173.153885	-5.810460	173.153885	-2.184838	-38.471157
9.950000	-2.871972	-159.263524	-5.903343	170.108447	-5.903343	170.108447	-2.149574	-41.015973
10.000000	-2.839878	-162.781884	-5.994335	167.085397	-5.994335	167.085397	-2.116854	-43.528680
