! freq	dB(S11)	phase(S11)	dB(S12)	phase(S12)	
!     	dB(S21)	phase(S21)	dB(S22)	phase(S22)	
!S-par simulation data
#  GHz  S  DB  R 50
0.000000	-0.000000	0.000000	-375.165627	0.000000	-375.165627	0.000000	-0.000000	0.000000
0.050000	-0.000441	-1.008706	-95.720210	87.499129	-95.720210	87.499129	-0.001788	-3.521434
0.100000	-0.001596	-2.014811	-89.740512	85.426853	-89.740512	85.426853	-0.006278	-7.027861
0.150000	-0.003117	-3.017369	-86.281811	83.276339	-86.281811	83.276339	-0.011854	-10.513471
0.200000	-0.004728	-4.016834	-83.870881	81.123848	-83.870881	81.123848	-0.017447	-13.978745
0.250000	-0.006287	-5.014154	-82.045804	78.991403	-82.045804	78.991403	-0.022670	-17.425292
0.300000	-0.007753	-6.010137	-80.600897	76.891934	-80.600897	76.891934	-0.027500	-20.853494
0.350000	-0.009133	-7.005289	-79.426621	74.836241	-79.426621	74.836241	-0.032022	-24.262435
0.400000	-0.010445	-7.999851	-78.459941	72.836756	-78.459941	72.836756	-0.036323	-27.649741
0.450000	-0.011714	-8.993935	-77.656545	70.902887	-77.656545	70.902887	-0.040470	-31.014045
0.500000	-0.012957	-9.987524	-76.990628	69.049571	-76.990628	69.049571	-0.044493	-34.352349
0.550000	-0.014188	-10.980583	-76.440966	67.289459	-76.440966	67.289459	-0.048409	-37.662989
0.600000	-0.015415	-11.973034	-75.994653	65.640772	-75.994653	65.640772	-0.052220	-40.943418
0.650000	-0.016645	-12.964805	-75.640954	64.122268	-75.640954	64.122268	-0.055923	-44.191888
0.700000	-0.017883	-13.955821	-75.372440	62.757115	-75.372440	62.757115	-0.059511	-47.406612
0.750000	-0.019131	-14.945990	-75.185394	61.577986	-75.185394	61.577986	-0.062975	-50.585131
0.800000	-0.020391	-15.935280	-75.072877	60.610990	-75.072877	60.610990	-0.066313	-53.727481
0.850000	-0.021663	-16.923612	-75.033596	59.902492	-75.033596	59.902492	-0.069520	-56.831605
0.900000	-0.022948	-17.910941	-75.064618	59.502517	-75.064618	59.502517	-0.072592	-59.896722
0.950000	-0.024244	-18.897220	-75.163588	59.475539	-75.163588	59.475539	-0.075530	-62.921938
1.000000	-0.025551	-19.882410	-75.327329	59.902034	-75.327329	59.902034	-0.078334	-65.906561
1.050000	-0.026868	-20.866477	-75.550782	60.882173	-75.550782	60.882173	-0.081006	-68.850059
1.100000	-0.028193	-21.849397	-75.825256	62.538356	-75.825256	62.538356	-0.083549	-71.752053
1.150000	-0.029523	-22.831148	-76.135813	65.014082	-76.135813	65.014082	-0.085969	-74.612303
1.200000	-0.030855	-23.811718	-76.457648	68.463718	-76.457648	68.463718	-0.088269	-77.430702
1.250000	-0.032184	-24.791096	-76.751989	73.024085	-76.751989	73.024085	-0.090454	-80.207264
1.300000	-0.033501	-25.769246	-76.960270	78.780939	-76.960270	78.780939	-0.092530	-82.941216
1.350000	-0.034795	-26.746168	-77.015423	85.598481	-77.015423	85.598481	-0.094503	-85.633704
1.400000	-0.036052	-27.721807	-76.854120	93.131651	-76.854120	93.131651	-0.096379	-88.285057
1.450000	-0.037257	-28.696049	-76.442068	100.832721	-76.442068	100.832721	-0.098166	-90.895686
1.500000	-0.038403	-29.668716	-75.790289	108.107417	-75.790289	108.107417	-0.099868	-93.466078
1.550000	-0.039498	-30.639601	-74.948772	114.502199	-74.948772	114.502199	-0.101491	-95.996784
1.600000	-0.040565	-31.608542	-73.983523	119.795566	-73.983523	119.795566	-0.103041	-98.488416
1.650000	-0.041638	-32.575502	-72.955190	123.969279	-72.955190	123.969279	-0.104523	-100.941634
1.700000	-0.042742	-33.540563	-71.909115	127.125709	-71.909115	127.125709	-0.105943	-103.357143
1.750000	-0.043890	-34.503859	-70.874828	129.414007	-70.874828	129.414007	-0.107305	-105.735682
1.800000	-0.045078	-35.465504	-69.869569	130.985884	-69.869569	130.985884	-0.108615	-108.078026
1.850000	-0.046298	-36.425567	-68.902276	131.975991	-68.902276	131.975991	-0.109877	-110.384970
1.900000	-0.047541	-37.384054	-67.976159	132.492341	-67.976159	132.492341	-0.111095	-112.656967
1.950000	-0.048800	-38.340955	-67.092194	132.627775	-67.092194	132.627775	-0.112274	-114.894878
2.000000	-0.050067	-39.296266	-66.249966	132.458273	-66.249966	132.458273	-0.113417	-117.099925
2.050000	-0.051339	-40.249958	-65.447550	132.040091	-65.447550	132.040091	-0.114529	-119.272959
2.100000	-0.052614	-41.202000	-64.682640	131.417925	-64.682640	131.417925	-0.115614	-121.414837
2.150000	-0.053890	-42.152364	-63.952817	130.627435	-63.952817	130.627435	-0.116674	-123.526415
2.200000	-0.055167	-43.101021	-63.255695	129.697227	-63.255695	129.697227	-0.117714	-125.608548
2.250000	-0.056444	-44.047945	-62.589000	128.650398	-62.589000	128.650398	-0.118736	-127.662085
2.300000	-0.057721	-44.993113	-61.950607	127.505718	-61.950607	127.505718	-0.119743	-129.687872
2.350000	-0.058999	-45.936503	-61.338550	126.278549	-61.338550	126.278549	-0.120738	-131.686741
2.400000	-0.060278	-46.878094	-60.751028	124.981543	-60.751028	124.981543	-0.121724	-133.659521
2.450000	-0.061559	-47.817866	-60.186393	123.625188	-60.186393	123.625188	-0.122703	-135.607024
2.500000	-0.062842	-48.755802	-59.643144	122.218234	-59.643144	122.218234	-0.123677	-137.530052
2.550000	-0.064128	-49.691843	-59.119657	120.767222	-59.119657	120.767222	-0.124650	-139.428897
2.600000	-0.065417	-50.626014	-58.614978	119.279375	-58.614978	119.279375	-0.125622	-141.304865
2.650000	-0.066710	-51.558300	-58.127962	117.759887	-58.127962	117.759887	-0.126597	-143.158714
2.700000	-0.068009	-52.488686	-57.657562	116.213190	-57.657562	116.213190	-0.127576	-144.991188
2.750000	-0.069312	-53.417161	-57.202819	114.643081	-57.202819	114.643081	-0.128561	-146.803012
2.800000	-0.070622	-54.343710	-56.762858	113.052826	-56.762858	113.052826	-0.129553	-148.594899
2.850000	-0.071938	-55.268323	-56.336874	111.445248	-56.336874	111.445248	-0.130555	-150.367544
2.900000	-0.073262	-56.190990	-55.924127	109.822792	-55.924127	109.822792	-0.131567	-152.121626
2.950000	-0.074594	-57.111700	-55.523936	108.187587	-55.523936	108.187587	-0.132591	-153.857807
3.000000	-0.075934	-58.030444	-55.135672	106.541494	-55.135672	106.541494	-0.133629	-155.576734
3.050000	-0.077284	-58.947213	-54.758754	104.886139	-54.758754	104.886139	-0.134681	-157.279037
3.100000	-0.078644	-59.862002	-54.392645	103.222953	-54.392645	103.222953	-0.135749	-158.965330
3.150000	-0.080014	-60.774780	-54.036798	101.553137	-54.036798	101.553137	-0.136834	-160.636051
3.200000	-0.081396	-61.685542	-53.690761	99.877838	-53.690761	99.877838	-0.137937	-162.291801
3.250000	-0.082789	-62.594304	-53.354152	98.198104	-53.354152	98.198104	-0.139058	-163.933316
3.300000	-0.084195	-63.501063	-53.026568	96.514806	-53.026568	96.514806	-0.140199	-165.561145
3.350000	-0.085614	-64.405639	-52.707364	94.828545	-52.707364	94.828545	-0.141362	-167.174737
3.400000	-0.087046	-65.308401	-52.396777	93.140425	-52.396777	93.140425	-0.142544	-168.776968
3.450000	-0.088492	-66.209151	-52.094150	91.450803	-52.094150	91.450803	-0.143747	-170.367069
3.500000	-0.089953	-67.107887	-51.799175	89.760237	-51.799175	89.760237	-0.144972	-171.945535
3.550000	-0.091429	-68.004610	-51.511562	88.069225	-51.511562	88.069225	-0.146220	-173.512847
3.600000	-0.092920	-68.899318	-51.231040	86.378217	-51.231040	86.378217	-0.147490	-175.069473
3.650000	-0.094428	-69.792014	-50.957353	84.687618	-50.957353	84.687618	-0.148784	-176.615869
3.700000	-0.095953	-70.682698	-50.690260	82.997793	-50.690260	82.997793	-0.150101	-178.152477
3.750000	-0.097495	-71.571374	-50.429534	81.309072	-50.429534	81.309072	-0.151442	-179.679730
3.800000	-0.099056	-72.457957	-50.174903	79.621829	-50.174903	79.621829	-0.152808	178.802323
3.850000	-0.100635	-73.342540	-49.926235	77.936283	-49.926235	77.936283	-0.154198	177.292869
3.900000	-0.102233	-74.225126	-49.683337	76.252679	-49.683337	76.252679	-0.155611	175.791512
3.950000	-0.103851	-75.105722	-49.446027	74.571239	-49.446027	74.571239	-0.157049	174.297867
4.000000	-0.105489	-75.984334	-49.214132	72.892166	-49.214132	72.892166	-0.158512	172.811560
4.050000	-0.107147	-76.860968	-48.987489	71.215646	-48.987489	71.215646	-0.159998	171.332227
4.100000	-0.108826	-77.735632	-48.765942	69.541849	-48.765942	69.541849	-0.161508	169.859514
4.150000	-0.110527	-78.608335	-48.549345	67.870932	-48.549345	67.870932	-0.163041	168.393073
4.200000	-0.112250	-79.479086	-48.337556	66.203040	-48.337556	66.203040	-0.164599	166.932571
4.250000	-0.113996	-80.347894	-48.130443	64.538305	-48.130443	64.538305	-0.166179	165.477679
4.300000	-0.115765	-81.214770	-47.927880	62.876852	-47.927880	62.876852	-0.167783	164.028079
4.350000	-0.117557	-82.079725	-47.729746	61.218795	-47.729746	61.218795	-0.169409	162.583461
4.400000	-0.119373	-82.942771	-47.535928	59.564242	-47.535928	59.564242	-0.171058	161.143521
4.450000	-0.121214	-83.803920	-47.346315	57.913295	-47.346315	57.913295	-0.172728	159.707967
4.500000	-0.123079	-84.663185	-47.160804	56.266048	-47.160804	56.266048	-0.174421	158.276511
4.550000	-0.124970	-85.520580	-46.979297	54.622592	-46.979297	54.622592	-0.176134	156.848873
4.600000	-0.126888	-86.376119	-46.801700	52.983012	-46.801700	52.983012	-0.177869	155.424782
4.650000	-0.128831	-87.229818	-46.627922	51.347394	-46.627922	51.347394	-0.179623	154.003972
4.700000	-0.130802	-88.081691	-46.457879	49.715816	-46.457879	49.715816	-0.181398	152.586184
4.750000	-0.132800	-88.931754	-46.291488	48.088357	-46.291488	48.088357	-0.183192	151.171167
4.800000	-0.134825	-89.780025	-46.128673	46.465095	-46.128673	46.465095	-0.185006	149.758674
4.850000	-0.136880	-90.626522	-45.969359	44.846107	-45.969359	44.846107	-0.186837	148.348467
4.900000	-0.138962	-91.471261	-45.813475	43.231469	-45.813475	43.231469	-0.188687	146.940312
4.950000	-0.141075	-92.314261	-45.660955	41.621258	-45.660955	41.621258	-0.190554	145.533981
5.000000	-0.143217	-93.155541	-45.511735	40.015554	-45.511735	40.015554	-0.192437	144.129252
5.050000	-0.145390	-93.995049	-45.365786	38.414640	-45.365786	38.414640	-0.194338	142.725959
5.100000	-0.147594	-94.832878	-45.223022	36.818404	-45.223022	36.818404	-0.196255	141.323823
5.150000	-0.149829	-95.669050	-45.083386	35.226932	-45.083386	35.226932	-0.198187	139.922639
5.200000	-0.152096	-96.503586	-44.946826	33.640314	-44.946826	33.640314	-0.200134	138.522207
5.250000	-0.154395	-97.336508	-44.813289	32.058645	-44.813289	32.058645	-0.202096	137.122333
5.300000	-0.156727	-98.167838	-44.682728	30.482024	-44.682728	30.482024	-0.204071	135.722826
5.350000	-0.159091	-98.997599	-44.555096	28.910555	-44.555096	28.910555	-0.206060	134.323502
5.400000	-0.161489	-99.825815	-44.430349	27.344348	-44.430349	27.344348	-0.208062	132.924180
5.450000	-0.163921	-100.652508	-44.308443	25.783522	-44.308443	25.783522	-0.210076	131.524686
5.500000	-0.166387	-101.477704	-44.189339	24.228198	-44.189339	24.228198	-0.212103	130.124848
5.550000	-0.168888	-102.301428	-44.072997	22.678509	-44.072997	22.678509	-0.214141	128.724500
5.600000	-0.171423	-103.123704	-43.959379	21.134593	-43.959379	21.134593	-0.216192	127.323479
5.650000	-0.173995	-103.944558	-43.848448	19.596598	-43.848448	19.596598	-0.218254	125.921628
5.700000	-0.176603	-104.764017	-43.740169	18.064681	-43.740169	18.064681	-0.220326	124.518792
5.750000	-0.179247	-105.582108	-43.634509	16.539007	-43.634509	16.539007	-0.222410	123.114824
5.800000	-0.181928	-106.398857	-43.531432	15.019752	-43.531432	15.019752	-0.224505	121.709576
5.850000	-0.184646	-107.214291	-43.430907	13.507102	-43.430907	13.507102	-0.226610	120.302909
5.900000	-0.187403	-108.028440	-43.332902	12.001253	-43.332902	12.001253	-0.228726	118.894684
5.950000	-0.190197	-108.841332	-43.237384	10.502412	-43.237384	10.502412	-0.230853	117.484769
6.000000	-0.193030	-109.652994	-43.144322	9.010798	-43.144322	9.010798	-0.232991	116.073034
6.050000	-0.195902	-110.463458	-43.053684	7.526641	-43.053684	7.526641	-0.235139	114.659352
6.100000	-0.198814	-111.272752	-42.965438	6.050183	-42.965438	6.050183	-0.237299	113.243604
6.150000	-0.201765	-112.080906	-42.879553	4.581677	-42.879553	4.581677	-0.239470	111.825669
6.200000	-0.204757	-112.887952	-42.795995	3.121388	-42.795995	3.121388	-0.241653	110.405434
6.250000	-0.207789	-113.693920	-42.714732	1.669595	-42.714732	1.669595	-0.243849	108.982788
6.300000	-0.210865	-114.498797	-42.635796	0.226983	-42.635796	0.226983	-0.246058	107.557509
6.350000	-0.213981	-115.302663	-42.559084	-1.206512	-42.559084	-1.206512	-0.248280	106.129599
6.400000	-0.217140	-116.105550	-42.484560	-2.630576	-42.484560	-2.630576	-0.250517	104.698959
6.450000	-0.220341	-116.907490	-42.412186	-4.044880	-42.412186	-4.044880	-0.252768	103.265491
6.500000	-0.223585	-117.708516	-42.341919	-5.449087	-42.341919	-5.449087	-0.255036	101.829102
6.550000	-0.226871	-118.508662	-42.273719	-6.842846	-42.273719	-6.842846	-0.257321	100.389705
6.600000	-0.230202	-119.307961	-42.207540	-8.225797	-42.207540	-8.225797	-0.259624	98.947211
6.650000	-0.233576	-120.106449	-42.143335	-9.597568	-42.143335	-9.597568	-0.261947	97.501537
6.700000	-0.236994	-120.904159	-42.081054	-10.957780	-42.081054	-10.957780	-0.264291	96.052604
6.750000	-0.240457	-121.701126	-42.020644	-12.306044	-42.020644	-12.306044	-0.266656	94.600335
6.800000	-0.243964	-122.497387	-41.962049	-13.641963	-41.962049	-13.641963	-0.269046	93.144655
6.850000	-0.247517	-123.292976	-41.905210	-14.965133	-41.905210	-14.965133	-0.271462	91.685493
6.900000	-0.251116	-124.087930	-41.850064	-16.275144	-41.850064	-16.275144	-0.273905	90.222781
6.950000	-0.254761	-124.882285	-41.796544	-17.571582	-41.796544	-17.571582	-0.276378	88.756452
7.000000	-0.258452	-125.676079	-41.744579	-18.854028	-41.744579	-18.854028	-0.278883	87.286444
7.050000	-0.262190	-126.469348	-41.694094	-20.122061	-41.694094	-20.122061	-0.281422	85.812696
7.100000	-0.265974	-127.262131	-41.645011	-21.375261	-41.645011	-21.375261	-0.283998	84.335149
7.150000	-0.269806	-128.054465	-41.597244	-22.613206	-41.597244	-22.613206	-0.286613	82.853747
7.200000	-0.273686	-128.846388	-41.550706	-23.835480	-41.550706	-23.835480	-0.289270	81.368435
7.250000	-0.277614	-129.637941	-41.505301	-25.041669	-41.505301	-25.041669	-0.291972	79.879161
7.300000	-0.281590	-130.429161	-41.460931	-26.231365	-41.460931	-26.231365	-0.294723	78.385874
7.350000	-0.285615	-131.220089	-41.417491	-27.404170	-41.417491	-27.404170	-0.297525	76.888524
7.400000	-0.289688	-132.010765	-41.374872	-28.559695	-41.374872	-28.559695	-0.300383	75.387063
7.450000	-0.293811	-132.801228	-41.332958	-29.697566	-41.332958	-29.697566	-0.303299	73.881443
7.500000	-0.297984	-133.591520	-41.291626	-30.817422	-41.291626	-30.817422	-0.306278	72.371618
7.550000	-0.302208	-134.381678	-41.250757	-31.918107	-41.250757	-31.918107	-0.309328	70.857354
7.600000	-0.306482	-135.171751	-41.210197	-33.000087	-41.210197	-33.000087	-0.312449	69.338786
7.650000	-0.310807	-135.961782	-41.169808	-34.063065	-41.169808	-34.063065	-0.315647	67.815870
7.700000	-0.315182	-136.751812	-41.129443	-35.106773	-41.129443	-35.106773	-0.318926	66.288556
7.750000	-0.319608	-137.541884	-41.088949	-36.130972	-41.088949	-36.130972	-0.322292	64.756796
7.800000	-0.324085	-138.332042	-41.048168	-37.135455	-41.048168	-37.135455	-0.325750	63.220540
7.850000	-0.328614	-139.122329	-41.006936	-38.120050	-41.006936	-38.120050	-0.329306	61.679735
7.900000	-0.333194	-139.912789	-40.965081	-39.084625	-40.965081	-39.084625	-0.332965	60.134325
7.950000	-0.337825	-140.703466	-40.922428	-40.029089	-40.922428	-40.029089	-0.336735	58.584253
8.000000	-0.342509	-141.494406	-40.878794	-40.953395	-40.878794	-40.953395	-0.340621	57.029454
8.050000	-0.347245	-142.285653	-40.833991	-41.857546	-40.833991	-41.857546	-0.344631	55.469863
8.100000	-0.352034	-143.077254	-40.787825	-42.741597	-40.787825	-42.741597	-0.348773	53.905406
8.150000	-0.356875	-143.869254	-40.740099	-43.605655	-40.740099	-43.605655	-0.353054	52.336005
8.200000	-0.361769	-144.661700	-40.690608	-44.449888	-40.690608	-44.449888	-0.357483	50.761573
8.250000	-0.366715	-145.454638	-40.639143	-45.274526	-40.639143	-45.274526	-0.362068	49.182016
8.300000	-0.371715	-146.248116	-40.585492	-46.079860	-40.585492	-46.079860	-0.366819	47.597231
8.350000	-0.376765	-147.042145	-40.529616	-46.867319	-40.529616	-46.867319	-0.371735	46.007422
8.400000	-0.381870	-147.836821	-40.471064	-47.635777	-40.471064	-47.635777	-0.376841	44.412026
8.450000	-0.387032	-148.632239	-40.409387	-48.384762	-40.409387	-48.384762	-0.382160	42.810558
8.500000	-0.392245	-149.428354	-40.344814	-49.117265	-40.344814	-49.117265	-0.387679	41.203634
8.550000	-0.397514	-150.225273	-40.276831	-49.832627	-40.276831	-49.832627	-0.393426	39.590629
8.600000	-0.402836	-151.023030	-40.205281	-50.531916	-40.205281	-50.531916	-0.399412	37.971472
8.650000	-0.408210	-151.821644	-40.130094	-51.216562	-40.130094	-51.216562	-0.405640	36.346195
8.700000	-0.413642	-152.621252	-40.050592	-51.886079	-40.050592	-51.886079	-0.412153	34.713937
8.750000	-0.419122	-153.421758	-39.967296	-52.543575	-39.967296	-52.543575	-0.418926	33.075484
8.800000	-0.424663	-154.223430	-39.878853	-53.187505	-39.878853	-53.187505	-0.426040	31.429054
8.850000	-0.430254	-155.026096	-39.786187	-53.821557	-39.786187	-53.821557	-0.433450	29.775866
8.900000	-0.435901	-155.829980	-39.688159	-54.445419	-39.688159	-54.445419	-0.441229	28.114393
8.950000	-0.441601	-156.635025	-39.585130	-55.061361	-39.585130	-55.061361	-0.449369	26.445010
9.000000	-0.447356	-157.441329	-39.476609	-55.670588	-39.476609	-55.670588	-0.457910	24.766957
9.050000	-0.453165	-158.248974	-39.362229	-56.274593	-39.362229	-56.274593	-0.466890	23.079575
9.100000	-0.459026	-159.057909	-39.242319	-56.875398	-39.242319	-56.875398	-0.476309	21.383055
9.150000	-0.464945	-159.868380	-39.115601	-57.474521	-39.115601	-57.474521	-0.486267	19.675437
9.200000	-0.470913	-160.680191	-38.983254	-58.073989	-38.983254	-58.073989	-0.496716	17.957900
9.250000	-0.476940	-161.493690	-38.843390	-58.676172	-38.843390	-58.676172	-0.507807	16.227499
9.300000	-0.483016	-162.308663	-38.697336	-59.282683	-38.697336	-59.282683	-0.519491	14.485487
9.350000	-0.489149	-163.125356	-38.543770	-59.896475	-38.543770	-59.896475	-0.531897	12.729446
9.400000	-0.495334	-163.943728	-38.383047	-60.519534	-38.383047	-60.519534	-0.545050	10.959147
9.450000	-0.501571	-164.763839	-38.214938	-61.154448	-38.214938	-61.154448	-0.559023	9.173440
9.500000	-0.507863	-165.585852	-38.038594	-61.804764	-38.038594	-61.804764	-0.573947	7.370085
9.550000	-0.514205	-166.409611	-37.855121	-62.471484	-37.855121	-62.471484	-0.589807	5.549708
9.600000	-0.520603	-167.235511	-37.662203	-63.161163	-37.662203	-63.161163	-0.606894	3.707310
9.650000	-0.527050	-168.063230	-37.462042	-63.872834	-37.462042	-63.872834	-0.625112	1.845087
9.700000	-0.533552	-168.893186	-37.252125	-64.614586	-37.252125	-64.614586	-0.644828	-0.042989
9.750000	-0.540104	-169.725157	-37.034103	-65.386289	-37.034103	-65.386289	-0.666017	-1.955870
9.800000	-0.546707	-170.559371	-36.806640	-66.194639	-36.806640	-66.194639	-0.688995	-3.898272
9.850000	-0.553362	-171.395849	-36.569834	-67.043368	-36.569834	-67.043368	-0.713956	-5.872567
9.900000	-0.560066	-172.234566	-36.324084	-67.935627	-36.324084	-67.935627	-0.741086	-7.880784
9.950000	-0.566823	-173.075813	-36.067607	-68.881331	-36.067607	-68.881331	-0.770925	-9.930340
10.000000	-0.573625	-173.919280	-35.802907	-69.877845	-35.802907	-69.877845	-0.803429	-12.019097
