! freq	dB(S11)	phase(S11)	dB(S12)	phase(S12)	
!     	dB(S21)	phase(S21)	dB(S22)	phase(S22)	
!S-par simulation data
#  GHz  S  DB  R 50
0.000000	-0.000000	0.000000	-372.708926	180.000000	-372.708926	180.000000	-0.000000	0.000000
0.050000	-0.003464	-1.585072	-95.722955	88.066318	-95.722955	88.066318	-0.004175	-1.585866
0.100000	-0.006604	-3.139991	-89.767783	86.607072	-89.767783	86.607072	-0.007052	-3.138691
0.150000	-0.008243	-4.691121	-86.301457	85.197228	-86.301457	85.197228	-0.008438	-4.690504
0.200000	-0.009439	-6.242765	-83.861231	83.777445	-83.861231	83.777445	-0.009507	-6.243337
0.250000	-0.010550	-7.794603	-81.993265	82.354879	-81.993265	82.354879	-0.010567	-7.796356
0.300000	-0.011717	-9.345970	-80.495974	80.941144	-80.495974	80.941144	-0.011722	-9.348789
0.350000	-0.012978	-10.896455	-79.255135	79.543644	-79.255135	79.543644	-0.012991	-10.900234
0.400000	-0.014349	-12.445673	-78.207955	78.170114	-78.207955	78.170114	-0.014383	-12.450308
0.450000	-0.015832	-13.993334	-77.312655	76.827370	-77.312655	76.827370	-0.015895	-13.998731
0.500000	-0.017432	-15.539010	-76.544865	75.526316	-76.544865	75.526316	-0.017526	-15.545078
0.550000	-0.019131	-17.082596	-75.881474	74.272418	-75.881474	74.272418	-0.019258	-17.089258
0.600000	-0.020916	-18.623961	-75.306732	73.072546	-75.306732	73.072546	-0.021075	-18.631151
0.650000	-0.022777	-20.162949	-74.809652	71.935338	-74.809652	71.935338	-0.022965	-20.170606
0.700000	-0.024702	-21.699422	-74.381842	70.870480	-74.381842	70.870480	-0.024917	-21.707494
0.750000	-0.026682	-23.233253	-74.016793	69.888950	-74.016793	69.888950	-0.026919	-23.241695
0.800000	-0.028706	-24.764260	-73.710483	69.006023	-73.710483	69.006023	-0.028962	-24.773031
0.850000	-0.030767	-26.292133	-73.461783	68.245775	-73.461783	68.245775	-0.031036	-26.301200
0.900000	-0.032852	-27.817037	-73.263223	67.616571	-73.263223	67.616571	-0.033129	-27.826375
0.950000	-0.034954	-29.338886	-73.111987	67.138664	-73.111987	67.138664	-0.035234	-29.348476
1.000000	-0.037065	-30.857604	-73.005579	66.835665	-73.005579	66.835665	-0.037345	-30.867430
1.050000	-0.039180	-32.373117	-72.941623	66.735104	-72.941623	66.735104	-0.039455	-32.383170
1.100000	-0.041293	-33.885358	-72.917629	66.869018	-72.917629	66.869018	-0.041559	-33.895632
1.150000	-0.043399	-35.394013	-72.933159	67.297729	-72.933159	67.297729	-0.043652	-35.404504
1.200000	-0.045494	-36.899117	-72.982703	68.062235	-72.982703	68.062235	-0.045731	-36.909824
1.250000	-0.047576	-38.400756	-73.059378	69.199855	-73.059378	69.199855	-0.047795	-38.411682
1.300000	-0.049641	-39.898878	-73.155937	70.763724	-73.155937	70.763724	-0.049840	-39.910027
1.350000	-0.051689	-41.393432	-73.262505	72.807991	-73.262505	72.807991	-0.051865	-41.404808
1.400000	-0.053718	-42.884368	-73.365856	75.382422	-73.365856	75.382422	-0.053871	-42.895977
1.450000	-0.055726	-44.371618	-73.448623	78.527228	-73.448623	78.527228	-0.055855	-44.383466
1.500000	-0.057711	-45.854745	-73.482666	82.310342	-73.482666	82.310342	-0.057816	-45.866839
1.550000	-0.059676	-47.334114	-73.446488	86.624886	-73.446488	86.624886	-0.059756	-47.346459
1.600000	-0.061620	-48.809684	-73.316473	91.370904	-73.316473	91.370904	-0.061676	-48.822287
1.650000	-0.063543	-50.281418	-73.073840	96.391430	-73.073840	96.391430	-0.063576	-50.294283
1.700000	-0.065446	-51.749050	-72.700432	101.479008	-72.700432	101.479008	-0.065457	-51.762183
1.750000	-0.067331	-53.212827	-72.208340	106.411590	-72.208340	106.411590	-0.067320	-53.226232
1.800000	-0.069198	-54.672602	-71.607242	111.001755	-71.607242	111.001755	-0.069166	-54.686283
1.850000	-0.071047	-56.128347	-70.918273	115.110641	-70.918273	115.110641	-0.070997	-56.142305
1.900000	-0.072881	-57.580034	-70.165486	118.660944	-70.165486	118.660944	-0.072814	-57.594272
1.950000	-0.074700	-59.027639	-69.371854	121.630320	-69.371854	121.630320	-0.074617	-59.042158
2.000000	-0.076506	-60.471141	-68.556904	124.036588	-68.556904	124.036588	-0.076410	-60.485942
2.050000	-0.078300	-61.910521	-67.735883	125.921853	-67.735883	125.921853	-0.078192	-61.925603
2.100000	-0.080084	-63.345763	-66.919944	127.339627	-66.919944	127.339627	-0.079966	-63.361127
2.150000	-0.081859	-64.776857	-66.116799	128.346102	-66.116799	128.346102	-0.081733	-64.792499
2.200000	-0.083626	-66.203791	-65.331490	128.995047	-65.331490	128.995047	-0.083493	-66.219711
2.250000	-0.085387	-67.626560	-64.567095	129.335297	-64.567095	129.335297	-0.085250	-67.642754
2.300000	-0.087144	-69.045161	-63.825294	129.409851	-63.825294	129.409851	-0.087003	-69.061627
2.350000	-0.088897	-70.459594	-63.106805	129.255879	-63.106805	129.255879	-0.088755	-70.476328
2.400000	-0.090648	-71.869862	-62.411696	128.905165	-62.411696	128.905165	-0.090507	-71.886860
2.450000	-0.092399	-73.275972	-61.739615	128.384734	-61.739615	128.384734	-0.092260	-73.293231
2.500000	-0.094151	-74.677934	-61.089940	127.717509	-61.089940	127.717509	-0.094015	-74.695449
2.550000	-0.095905	-76.075583	-60.460887	126.918166	-60.460887	126.918166	-0.095774	-76.093350
2.600000	-0.097662	-77.469115	-59.852763	126.009229	-59.852763	126.009229	-0.097538	-77.487129
2.650000	-0.099425	-78.858552	-59.264635	125.004462	-59.264635	125.004462	-0.099307	-78.876807
2.700000	-0.101194	-80.243917	-58.695572	123.915634	-58.695572	123.915634	-0.101084	-80.262408
2.750000	-0.102970	-81.625236	-58.144662	122.752842	-58.144662	122.752842	-0.102869	-81.643959
2.800000	-0.104755	-83.002540	-57.611026	121.524775	-57.611026	121.524775	-0.104664	-83.021490
2.850000	-0.106550	-84.375862	-57.093826	120.238937	-57.093826	120.238937	-0.106469	-84.395034
2.900000	-0.108355	-85.745239	-56.592264	118.901832	-56.592264	118.901832	-0.108286	-85.764627
2.950000	-0.110173	-87.110711	-56.105589	117.519113	-56.105589	117.519113	-0.110115	-87.130309
3.000000	-0.112003	-88.472319	-55.633092	116.095713	-55.633092	116.095713	-0.111957	-88.492123
3.050000	-0.113848	-89.830110	-55.174108	114.635950	-55.174108	114.635950	-0.113814	-89.850115
3.100000	-0.115708	-91.184134	-54.728011	113.143614	-54.728011	113.143614	-0.115686	-91.204333
3.150000	-0.117585	-92.534440	-54.294215	111.622040	-54.294215	111.622040	-0.117575	-92.554830
3.200000	-0.119478	-93.881085	-53.872172	110.074176	-53.872172	110.074176	-0.119480	-93.901660
3.250000	-0.121390	-95.224126	-53.461365	108.502628	-53.461365	108.502628	-0.121404	-95.244881
3.300000	-0.123320	-96.563624	-53.061312	106.909711	-53.061312	106.909711	-0.123346	-96.584553
3.350000	-0.125271	-97.899641	-52.671560	105.297484	-52.671560	105.297484	-0.125308	-97.920741
3.400000	-0.127242	-99.232244	-52.291683	103.667781	-52.291683	103.667781	-0.127290	-99.253508
3.450000	-0.129235	-100.561502	-51.921281	102.022241	-51.921281	102.022241	-0.129294	-100.582926
3.500000	-0.131251	-101.887485	-51.559978	100.362333	-51.559978	100.362333	-0.131319	-101.909064
3.550000	-0.133290	-103.210268	-51.207422	98.689369	-51.207422	98.689369	-0.133367	-103.231997
3.600000	-0.135353	-104.529926	-50.863278	97.004532	-50.863278	97.004532	-0.135439	-104.551801
3.650000	-0.137440	-105.846540	-50.527235	95.308882	-50.527235	95.308882	-0.137535	-105.868555
3.700000	-0.139554	-107.160190	-50.198996	93.603375	-50.198996	93.603375	-0.139655	-107.182340
3.750000	-0.141694	-108.470959	-49.878283	91.888873	-49.878283	91.888873	-0.141801	-108.493240
3.800000	-0.143862	-109.778817	-49.564657	90.165829	-49.564657	90.165829	-0.143975	-109.801223
3.850000	-0.146058	-111.083978	-49.258066	88.435325	-49.258066	88.435325	-0.146176	-111.106504
3.900000	-0.148282	-112.386531	-48.958275	86.697987	-48.958275	86.697987	-0.148404	-112.409173
3.950000	-0.150535	-113.686571	-48.665057	84.954381	-48.665057	84.954381	-0.150660	-113.709323
4.000000	-0.152818	-114.984192	-48.378202	83.205020	-48.378202	83.205020	-0.152945	-115.007049
4.050000	-0.155132	-116.279491	-48.097509	81.450367	-48.097509	81.450367	-0.155260	-116.302449
4.100000	-0.157476	-117.572567	-47.822786	79.690841	-47.822786	79.690841	-0.157604	-117.595620
4.150000	-0.159852	-118.863522	-47.553852	77.926822	-47.553852	77.926822	-0.159980	-118.886666
4.200000	-0.162259	-120.152458	-47.290538	76.158654	-47.290538	76.158654	-0.162386	-120.175687
4.250000	-0.164700	-121.439481	-47.032678	74.386646	-47.032678	74.386646	-0.164824	-121.462791
4.300000	-0.167173	-122.724698	-46.780120	72.611080	-46.780120	72.611080	-0.167295	-122.748082
4.350000	-0.169680	-124.008217	-46.532715	70.832206	-46.532715	70.832206	-0.169798	-124.031671
4.400000	-0.172221	-125.290148	-46.290324	69.050252	-46.290324	69.050252	-0.172335	-125.313667
4.450000	-0.174796	-126.570604	-46.052814	67.265423	-46.052814	67.265423	-0.174905	-126.594183
4.500000	-0.177406	-127.849700	-45.820058	65.477900	-45.820058	65.477900	-0.177510	-127.873332
4.550000	-0.180052	-129.127549	-45.591935	63.687847	-45.591935	63.687847	-0.180150	-129.151231
4.600000	-0.182733	-130.404271	-45.368331	61.895407	-45.368331	61.895407	-0.182825	-130.427997
4.650000	-0.185451	-131.679983	-45.149135	60.100707	-45.149135	60.100707	-0.185535	-131.703748
4.700000	-0.188205	-132.954807	-44.934244	58.303859	-44.934244	58.303859	-0.188282	-132.978605
4.750000	-0.190996	-134.228864	-44.723557	56.504958	-44.723557	56.504958	-0.191065	-134.252691
4.800000	-0.193825	-135.502278	-44.516979	54.704087	-44.516979	54.704087	-0.193886	-135.526129
4.850000	-0.196691	-136.775175	-44.314419	52.901315	-44.314419	52.901315	-0.196744	-136.799045
4.900000	-0.199594	-138.047682	-44.115791	51.096696	-44.115791	51.096696	-0.199639	-138.071565
4.950000	-0.202536	-139.319926	-43.921010	49.290276	-43.921010	49.290276	-0.202573	-139.343818
5.000000	-0.205517	-140.592037	-43.729999	47.482084	-43.729999	47.482084	-0.205545	-140.615933
5.050000	-0.208538	-141.864154	-43.542666	45.672067	-43.542666	45.672067	-0.208558	-141.888048
5.100000	-0.211598	-143.136414	-43.358961	43.860309	-43.358961	43.860309	-0.211610	-143.160303
5.150000	-0.214698	-144.408952	-43.178813	42.046805	-43.178813	42.046805	-0.214701	-144.432831
5.200000	-0.217837	-145.681903	-43.002157	40.231542	-43.002157	40.231542	-0.217832	-145.705768
5.250000	-0.221016	-146.955406	-42.828927	38.414494	-42.828927	38.414494	-0.221003	-146.979251
5.300000	-0.224234	-148.229598	-42.659063	36.595623	-42.659063	36.595623	-0.224215	-148.253420
5.350000	-0.227493	-149.504620	-42.492505	34.774883	-42.492505	34.774883	-0.227467	-149.528415
5.400000	-0.230792	-150.780613	-42.329196	32.952213	-42.329196	32.952213	-0.230760	-150.804377
5.450000	-0.234132	-152.057720	-42.169084	31.127541	-42.169084	31.127541	-0.234093	-152.081448
5.500000	-0.237512	-153.336084	-42.012115	29.300783	-42.012115	29.300783	-0.237468	-153.359774
5.550000	-0.240933	-154.615852	-41.858240	27.471842	-41.858240	27.471842	-0.240884	-154.639499
5.600000	-0.244395	-155.897171	-41.707411	25.640607	-41.707411	25.640607	-0.244342	-155.920772
5.650000	-0.247898	-157.180189	-41.559581	23.806951	-41.559581	23.806951	-0.247841	-157.203740
5.700000	-0.251442	-158.465055	-41.414707	21.970735	-41.414707	21.970735	-0.251382	-158.488553
5.750000	-0.255027	-159.751921	-41.272745	20.131799	-41.272745	20.131799	-0.254965	-159.775363
5.800000	-0.258653	-161.040939	-41.133654	18.289969	-41.133654	18.289969	-0.258589	-161.064322
5.850000	-0.262321	-162.332263	-40.997394	16.445051	-40.997394	16.445051	-0.262256	-162.355584
5.900000	-0.266030	-163.626049	-40.863927	14.596829	-40.863927	14.596829	-0.265964	-163.649304
5.950000	-0.269780	-164.922452	-40.733216	12.745067	-40.733216	12.745067	-0.269715	-164.945639
6.000000	-0.273572	-166.221632	-40.605225	10.889503	-40.605225	10.889503	-0.273507	-166.244748
6.050000	-0.277404	-167.523748	-40.479918	9.029850	-40.479918	9.029850	-0.277342	-167.546790
6.100000	-0.281279	-168.828960	-40.357262	7.165791	-40.357262	7.165791	-0.281218	-168.851926
6.150000	-0.285194	-170.137432	-40.237223	5.296978	-40.237223	5.296978	-0.285137	-170.160318
6.200000	-0.289152	-171.449327	-40.119769	3.423029	-40.119769	3.423029	-0.289098	-171.472131
6.250000	-0.293150	-172.764811	-40.004868	1.543522	-40.004868	1.543522	-0.293100	-172.787530
6.300000	-0.297192	-174.084222	-39.892534	-0.342292	-39.892534	-0.342292	-0.297146	-174.106852
6.350000	-0.301274	-175.407574	-39.782693	-2.234689	-39.782693	-2.234689	-0.301234	-175.430112
6.400000	-0.305399	-176.735035	-39.675311	-4.134240	-39.675311	-4.134240	-0.305364	-176.757479
6.450000	-0.309564	-178.066780	-39.570358	-6.041575	-39.570358	-6.041575	-0.309536	-178.089126
6.500000	-0.313771	-179.402982	-39.467800	-7.957390	-39.467800	-7.957390	-0.313749	-179.425226
6.550000	-0.318019	179.256184	-39.367602	-9.882457	-39.367602	-9.882457	-0.318004	179.234045
6.600000	-0.322309	177.910540	-39.269731	-11.817631	-39.269731	-11.817631	-0.322300	177.888510
6.650000	-0.326640	176.559905	-39.174149	-13.763861	-39.174149	-13.763861	-0.326638	176.537989
6.700000	-0.331013	175.204098	-39.080816	-15.722204	-39.080816	-15.722204	-0.331018	175.182300
6.750000	-0.335428	173.842935	-38.989689	-17.693839	-38.989689	-17.693839	-0.335440	173.821259
6.800000	-0.339885	172.476228	-38.900723	-19.680082	-38.900723	-19.680082	-0.339904	172.454680
6.850000	-0.344384	171.103788	-38.813865	-21.682409	-38.813865	-21.682409	-0.344410	171.082374
6.900000	-0.348926	169.725424	-38.729059	-23.702476	-38.729059	-23.702476	-0.348958	169.704149
6.950000	-0.353511	168.340938	-38.646239	-25.742149	-38.646239	-25.742149	-0.353550	168.319808
7.000000	-0.358141	166.950131	-38.565331	-27.803534	-38.565331	-27.803534	-0.358185	166.929154
7.050000	-0.362815	165.552799	-38.486249	-29.889020	-38.486249	-29.889020	-0.362865	165.531982
7.100000	-0.367535	164.148735	-38.408893	-32.001317	-38.408893	-32.001317	-0.367590	164.128085
7.150000	-0.372302	162.737723	-38.333144	-34.143519	-38.333144	-34.143519	-0.372362	162.717248
7.200000	-0.377118	161.319542	-38.258864	-36.319167	-38.258864	-36.319167	-0.377182	161.299252
7.250000	-0.381984	159.893966	-38.185885	-38.532327	-38.185885	-38.532327	-0.382052	159.873869
7.300000	-0.386905	158.460756	-38.114005	-40.787691	-38.114005	-40.787691	-0.386975	158.440862
7.350000	-0.391882	157.019665	-38.042980	-43.090695	-38.042980	-43.090695	-0.391954	156.999984
7.400000	-0.396919	155.570433	-37.972512	-45.447664	-37.972512	-45.447664	-0.396993	155.550974
7.450000	-0.402023	154.112781	-37.902233	-47.865996	-37.902233	-47.865996	-0.402097	154.093557
7.500000	-0.407198	152.646416	-37.831687	-50.354383	-37.831687	-50.354383	-0.407272	152.627437
7.550000	-0.412457	151.170607	-37.760207	-52.927181	-37.760207	-52.927181	-0.412530	151.151886
7.600000	-0.417808	149.685380	-37.687084	-55.593877	-37.687084	-55.593877	-0.417879	149.666928
7.650000	-0.423264	148.190340	-37.611366	-58.369506	-37.611366	-58.369506	-0.423333	148.172170
7.700000	-0.428842	146.685042	-37.531826	-61.272216	-37.531826	-61.272216	-0.428908	146.667167
7.750000	-0.434567	145.168976	-37.446866	-64.324075	-37.446866	-64.324075	-0.434629	145.151407
7.800000	-0.440470	143.641543	-37.354381	-67.552116	-37.354381	-67.552116	-0.440526	143.624294
7.850000	-0.446592	142.102029	-37.251567	-70.989705	-37.251567	-70.989705	-0.446643	142.085111
7.900000	-0.452991	140.549564	-37.134646	-74.678362	-37.134646	-74.678362	-0.453037	140.532988
7.950000	-0.459708	138.984537	-37.001082	-78.635518	-37.001082	-78.635518	-0.459748	138.968314
8.000000	-0.466922	137.402961	-36.839933	-82.983438	-36.839933	-82.983438	-0.466956	137.387101
8.050000	-0.474776	135.804243	-36.643164	-87.779673	-36.643164	-87.779673	-0.474804	135.788755
8.100000	-0.483525	134.185986	-36.397027	-93.130425	-36.397027	-93.130425	-0.483547	134.170875
8.150000	-0.493591	132.544658	-36.080899	-99.180586	-36.080899	-99.180586	-0.493609	132.529927
8.200000	-0.505675	130.875412	-35.664953	-106.116654	-35.664953	-106.116654	-0.505690	130.861059
8.250000	-0.520975	129.171529	-35.107124	-114.177118	-35.107124	-114.177118	-0.520991	129.157546
8.300000	-0.541692	127.423372	-34.347943	-123.684405	-34.347943	-123.684405	-0.541715	127.409744
8.350000	-0.572549	125.616126	-33.293034	-135.162320	-33.293034	-135.162320	-0.572588	125.602822
8.400000	-0.623901	123.736146	-31.820126	-149.440581	-31.820126	-149.440581	-0.623978	123.723130
8.450000	-0.720496	121.809248	-29.795331	-168.166875	-29.795331	-168.166875	-0.720655	121.796526
8.500000	-0.913942	120.156794	-27.240451	164.956541	-27.240451	164.956541	-0.914274	120.144748
8.550000	-1.148888	120.118629	-25.189530	124.675742	-25.189530	124.675742	-1.149385	120.108932
8.600000	-0.999792	120.798050	-25.817615	79.693072	-25.817615	79.693072	-1.000068	120.790743
8.650000	-0.755316	119.357988	-28.082149	47.819230	-28.082149	47.819230	-0.755371	119.351100
8.700000	-0.640047	117.284732	-30.149877	27.252363	-30.149877	27.252363	-0.640007	117.277942
8.750000	-0.590659	115.238311	-31.704809	12.741384	-31.704809	12.741384	-0.590577	115.231713
8.800000	-0.568526	113.275540	-32.840987	1.701122	-32.840987	1.701122	-0.568422	113.269229
8.850000	-0.558475	111.372752	-33.681400	-7.128697	-33.681400	-7.128697	-0.558360	111.366786
8.900000	-0.554452	109.507866	-34.312134	-14.401542	-34.312134	-14.401542	-0.554332	109.502278
8.950000	-0.553623	107.665221	-34.798172	-20.547084	-34.798172	-20.547084	-0.553502	107.660026
9.000000	-0.554668	105.835330	-35.178817	-25.820817	-35.178817	-25.820817	-0.554548	105.830529
9.050000	-0.556889	104.011883	-35.479500	-30.384736	-35.479500	-30.384736	-0.556773	104.007468
9.100000	-0.559778	102.190269	-35.728276	-34.442487	-35.728276	-34.442487	-0.559669	102.186226
9.150000	-0.563191	100.367698	-35.929349	-38.012264	-35.929349	-38.012264	-0.563090	100.364003
9.200000	-0.566903	98.542323	-36.099813	-41.237002	-36.099813	-41.237002	-0.566811	98.538950
9.250000	-0.570851	96.712398	-36.242709	-44.135465	-36.242709	-44.135465	-0.570770	96.709310
9.300000	-0.574956	94.876936	-36.364350	-46.764585	-36.364350	-46.764585	-0.574888	94.874094
9.350000	-0.579173	93.035163	-36.468566	-49.160857	-36.468566	-49.160857	-0.579119	93.032519
9.400000	-0.583472	91.186437	-36.558042	-51.351632	-36.558042	-51.351632	-0.583432	91.183940
9.450000	-0.587828	89.330350	-36.634926	-53.361353	-36.634926	-53.361353	-0.587802	89.327943
9.500000	-0.592224	87.466711	-36.700888	-55.211536	-36.700888	-55.211536	-0.592214	87.464329
9.550000	-0.596650	85.595346	-36.757023	-56.918267	-36.757023	-56.918267	-0.596655	85.592922
9.600000	-0.601097	83.716163	-36.804112	-58.495116	-36.804112	-58.495116	-0.601116	83.713622
9.650000	-0.605559	81.829131	-36.842692	-59.953686	-36.842692	-59.953686	-0.605590	81.826394
9.700000	-0.610032	79.934275	-36.873108	-61.304041	-36.873108	-61.304041	-0.610074	79.931257
9.750000	-0.614514	78.031664	-36.895559	-62.555044	-36.895559	-62.555044	-0.614564	78.028275
9.800000	-0.619004	76.121409	-36.910123	-63.714626	-36.910123	-63.714626	-0.619057	76.117555
9.850000	-0.623500	74.203657	-36.916790	-64.790005	-36.916790	-64.790005	-0.623553	74.199237
9.900000	-0.628003	72.278586	-36.915482	-65.787854	-36.915482	-65.787854	-0.628051	72.273496
9.950000	-0.632514	70.346404	-36.906066	-66.714441	-36.906066	-66.714441	-0.632551	70.340535
10.000000	-0.637036	68.407345	-36.888378	-67.575738	-36.888378	-67.575738	-0.637053	68.400584
