! freq	dB(S11)	phase(S11)	dB(S12)	phase(S12)	
!     	dB(S21)	phase(S21)	dB(S22)	phase(S22)	
!S-par simulation data
#  GHz  S  DB  R 50
0.000000	-0.000000	0.000000	-376.572551	180.000000	-376.572551	180.000000	-0.000000	0.000000
0.050000	-0.000105	-0.814592	-111.537123	89.090673	-111.537123	89.090673	-0.000126	-1.111730
0.100000	-0.000417	-1.628924	-105.559819	88.190283	-105.559819	88.190283	-0.000499	-2.223170
0.150000	-0.000921	-2.442756	-102.110196	87.307949	-102.110196	87.307949	-0.001108	-3.334045
0.200000	-0.001597	-3.255894	-99.712059	86.452915	-99.712059	86.452915	-0.001933	-4.444119
0.250000	-0.002428	-4.068121	-97.908721	85.638172	-97.908721	85.638172	-0.002964	-5.553109
0.300000	-0.003376	-4.879406	-96.487669	84.871956	-96.487669	84.871956	-0.004157	-6.660938
0.350000	-0.004420	-5.689643	-95.343598	84.169169	-95.343598	84.169169	-0.005496	-7.767425
0.400000	-0.005537	-6.498800	-94.412547	83.545651	-94.412547	83.545651	-0.006953	-8.872471
0.450000	-0.006705	-7.306871	-93.654164	83.020353	-93.654164	83.020353	-0.008503	-9.976005
0.500000	-0.007905	-8.113877	-93.041864	82.616357	-93.041864	82.616357	-0.010123	-11.077989
0.550000	-0.009122	-8.919849	-92.557712	82.362250	-92.557712	82.362250	-0.011792	-12.178406
0.600000	-0.010345	-9.724826	-92.189529	82.294001	-92.189529	82.294001	-0.013491	-13.277254
0.650000	-0.011565	-10.528849	-91.929120	82.457537	-91.929120	82.457537	-0.015205	-14.374546
0.700000	-0.012776	-11.331959	-91.771060	82.912310	-91.771060	82.912310	-0.016923	-15.470300
0.750000	-0.013975	-12.134189	-91.711687	83.736218	-91.711687	83.736218	-0.018635	-16.564538
0.800000	-0.015158	-12.935571	-91.747994	85.032257	-91.747994	85.032257	-0.020333	-17.657281
0.850000	-0.016324	-13.736128	-91.876065	86.937102	-91.876065	86.937102	-0.022013	-18.748549
0.900000	-0.017474	-14.535877	-92.088458	89.630872	-92.088458	89.630872	-0.023670	-19.838358
0.950000	-0.018608	-15.334830	-92.369695	93.344547	-92.369695	93.344547	-0.025303	-20.926719
1.000000	-0.019726	-16.132994	-92.688798	98.354570	-92.688798	98.354570	-0.026911	-22.013640
1.050000	-0.020830	-16.930370	-92.988673	104.941065	-92.988673	104.941065	-0.028493	-23.099122
1.100000	-0.021920	-17.726956	-93.176424	113.272569	-93.176424	113.272569	-0.030051	-24.183162
1.150000	-0.022999	-18.522746	-93.128461	123.199372	-93.128461	123.199372	-0.031584	-25.265755
1.200000	-0.024067	-19.317731	-92.730250	134.054860	-92.730250	134.054860	-0.033096	-26.346887
1.250000	-0.025126	-20.111901	-91.942345	144.741858	-91.942345	144.741858	-0.034586	-27.426545
1.300000	-0.026176	-20.905205	-90.813380	154.146386	-90.813380	154.146386	-0.036057	-28.504644
1.350000	-0.027220	-21.697665	-89.489285	161.812999	-89.489285	161.812999	-0.037510	-29.581229
1.400000	-0.028257	-22.489265	-88.084302	167.753357	-88.084302	167.753357	-0.038948	-30.656276
1.450000	-0.029289	-23.279988	-86.674588	172.207717	-86.674588	172.207717	-0.040372	-31.729761
1.500000	-0.030316	-24.069817	-85.302202	175.467075	-85.302202	175.467075	-0.041784	-32.801658
1.550000	-0.031340	-24.858735	-83.986798	177.793286	-83.986798	177.793286	-0.043185	-33.871941
1.600000	-0.032361	-25.646723	-82.735310	179.397070	-82.735310	179.397070	-0.044577	-34.940582
1.650000	-0.033379	-26.433764	-81.548086	-179.559801	-81.548086	-179.559801	-0.045962	-36.007553
1.700000	-0.034395	-27.219839	-80.422334	-178.955273	-80.422334	-178.955273	-0.047341	-37.072827
1.750000	-0.035410	-28.004930	-79.353955	-178.697495	-79.353955	-178.697495	-0.048714	-38.136376
1.800000	-0.036424	-28.789020	-78.338480	-178.716994	-78.338480	-178.716994	-0.050084	-39.198173
1.850000	-0.037438	-29.572089	-77.371520	-178.960759	-77.371520	-178.960759	-0.051450	-40.258190
1.900000	-0.038451	-30.354122	-76.448969	-179.387910	-76.448969	-179.387910	-0.052816	-41.316402
1.950000	-0.039465	-31.135099	-75.567083	-179.966571	-75.567083	-179.966571	-0.054180	-42.372782
2.000000	-0.040479	-31.915004	-74.722493	179.328393	-74.722493	179.328393	-0.055544	-43.427305
2.050000	-0.041494	-32.693819	-73.912183	178.517011	-73.912183	178.517011	-0.056909	-44.479947
2.100000	-0.042511	-33.471528	-73.133461	177.615415	-73.133461	177.615415	-0.058275	-45.530684
2.150000	-0.043529	-34.248115	-72.383928	176.636718	-72.383928	176.636718	-0.059644	-46.579495
2.200000	-0.044549	-35.023562	-71.661441	175.591679	-71.661441	175.591679	-0.061016	-47.626358
2.250000	-0.045572	-35.797855	-70.964082	174.489201	-70.964082	174.489201	-0.062391	-48.671253
2.300000	-0.046597	-36.570977	-70.290134	173.336707	-70.290134	173.336707	-0.063771	-49.714160
2.350000	-0.047625	-37.342914	-69.638049	172.140437	-69.638049	172.140437	-0.065155	-50.755061
2.400000	-0.048656	-38.113650	-69.006433	170.905666	-69.006433	170.905666	-0.066545	-51.793939
2.450000	-0.049691	-38.883170	-68.394026	169.636889	-68.394026	169.636889	-0.067940	-52.830779
2.500000	-0.050730	-39.651461	-67.799684	168.337954	-67.799684	168.337954	-0.069342	-53.865566
2.550000	-0.051774	-40.418454	-67.221443	167.011144	-67.221443	167.011144	-0.070751	-54.898195
2.600000	-0.052822	-41.184189	-66.659377	165.660587	-66.659377	165.660587	-0.072168	-55.928745
2.650000	-0.053875	-41.948652	-66.112607	164.288737	-66.112607	164.288737	-0.073593	-56.957204
2.700000	-0.054934	-42.711831	-65.580327	162.897745	-65.580327	162.897745	-0.075026	-57.983562
2.750000	-0.055998	-43.473713	-65.061798	161.489502	-65.061798	161.489502	-0.076468	-59.007811
2.800000	-0.057068	-44.234287	-64.556337	160.065678	-64.556337	160.065678	-0.077919	-60.029943
2.850000	-0.058145	-44.993539	-64.063315	158.627754	-64.063315	158.627754	-0.079381	-61.049953
2.900000	-0.059229	-45.751459	-63.582149	157.177047	-63.582149	157.177047	-0.080852	-62.067834
2.950000	-0.060320	-46.508036	-63.112301	155.714730	-63.112301	155.714730	-0.082335	-63.083584
3.000000	-0.061418	-47.263259	-62.653267	154.241856	-62.653267	154.241856	-0.083829	-64.097200
3.050000	-0.062524	-48.017118	-62.204582	152.759369	-62.204582	152.759369	-0.085336	-65.108680
3.100000	-0.063639	-48.769603	-61.765810	151.268121	-61.765810	151.268121	-0.086854	-66.118024
3.150000	-0.064762	-49.520703	-61.336544	149.768879	-61.336544	149.768879	-0.088386	-67.125233
3.200000	-0.065894	-50.270411	-60.916404	148.262339	-60.916404	148.262339	-0.089931	-68.130308
3.250000	-0.067036	-51.018717	-60.505032	146.749133	-60.505032	146.749133	-0.091491	-69.133252
3.300000	-0.068188	-51.765612	-60.102094	145.229834	-60.102094	145.229834	-0.093064	-70.134070
3.350000	-0.069350	-52.511089	-59.707274	143.704966	-59.707274	143.704966	-0.094653	-71.132768
3.400000	-0.070522	-53.255140	-59.320277	142.175008	-59.320277	142.175008	-0.096258	-72.129350
3.450000	-0.071705	-53.997757	-58.940822	140.640398	-58.940822	140.640398	-0.097879	-73.123826
3.500000	-0.072900	-54.738934	-58.568646	139.101537	-58.568646	139.101537	-0.099516	-74.116203
3.550000	-0.074107	-55.478665	-58.203499	137.558797	-58.203499	137.558797	-0.101171	-75.106490
3.600000	-0.075326	-56.216942	-57.845146	136.012516	-57.845146	136.012516	-0.102844	-76.094699
3.650000	-0.076557	-56.953760	-57.493362	134.463009	-57.493362	134.463009	-0.104535	-77.080842
3.700000	-0.077802	-57.689114	-57.147936	132.910565	-57.147936	132.910565	-0.106245	-78.064930
3.750000	-0.079060	-58.422998	-56.808666	131.355454	-56.808666	131.355454	-0.107975	-79.046978
3.800000	-0.080332	-59.155344	-56.475067	129.797829	-56.475067	129.797829	-0.109726	-80.026914
3.850000	-0.081618	-59.886212	-56.147273	128.238036	-56.147273	128.238036	-0.111497	-81.004841
3.900000	-0.082919	-60.615598	-55.825110	126.676286	-55.825110	126.676286	-0.113290	-81.980776
3.950000	-0.084236	-61.343498	-55.508411	125.112779	-55.508411	125.112779	-0.115105	-82.954739
4.000000	-0.085567	-62.069909	-55.197018	123.547698	-55.197018	123.547698	-0.116942	-83.926746
4.050000	-0.086915	-62.794829	-54.890778	121.981215	-54.890778	121.981215	-0.118802	-84.896819
4.100000	-0.088279	-63.518255	-54.589547	120.413493	-54.589547	120.413493	-0.120686	-85.864977
4.150000	-0.089659	-64.240185	-54.293187	118.844682	-54.293187	118.844682	-0.122594	-86.831244
4.200000	-0.091056	-64.960618	-54.001566	117.274922	-54.001566	117.274922	-0.124527	-87.795640
4.250000	-0.092471	-65.679554	-53.714556	115.704348	-53.714556	115.704348	-0.126486	-88.758190
4.300000	-0.093904	-66.396990	-53.432036	114.133083	-53.432036	114.133083	-0.128470	-89.718918
4.350000	-0.095355	-67.112927	-53.153890	112.561244	-53.153890	112.561244	-0.130481	-90.677850
4.400000	-0.096825	-67.827365	-52.880007	110.988942	-52.880007	110.988942	-0.132519	-91.635012
4.450000	-0.098314	-68.540303	-52.610278	109.416279	-52.610278	109.416279	-0.134585	-92.590430
4.500000	-0.099823	-69.251743	-52.344601	107.843355	-52.344601	107.843355	-0.136678	-93.544133
4.550000	-0.101351	-69.961686	-52.082878	106.270260	-52.082878	106.270260	-0.138801	-94.496150
4.600000	-0.102900	-70.670134	-51.825012	104.697082	-51.825012	104.697082	-0.140953	-95.446510
4.650000	-0.104469	-71.377087	-51.570912	103.123904	-51.570912	103.123904	-0.143135	-96.395245
4.700000	-0.106060	-72.082549	-51.320491	101.550802	-51.320491	101.550802	-0.145347	-97.342384
4.750000	-0.107672	-72.786521	-51.073663	99.977851	-51.073663	99.977851	-0.147590	-98.287961
4.800000	-0.109306	-73.489007	-50.830346	98.405121	-50.830346	98.405121	-0.149865	-99.232009
4.850000	-0.110963	-74.190009	-50.590462	96.832676	-50.590462	96.832676	-0.152172	-100.174562
4.900000	-0.112642	-74.889532	-50.353934	95.260581	-50.353934	95.260581	-0.154511	-101.115653
4.950000	-0.114344	-75.587579	-50.120689	93.688894	-50.120689	93.688894	-0.156884	-102.055319
5.000000	-0.116070	-76.284154	-49.890656	92.117672	-49.890656	92.117672	-0.159290	-102.993596
5.050000	-0.117822	-76.979199	-49.663645	90.546994	-49.663645	90.546994	-0.161732	-103.930464
5.100000	-0.119597	-77.672782	-49.439720	88.976889	-49.439720	88.976889	-0.164208	-104.866021
5.150000	-0.121398	-78.364909	-49.218815	87.407406	-49.218815	87.407406	-0.166720	-105.800307
5.200000	-0.123224	-79.055585	-49.000869	85.838591	-49.000869	85.838591	-0.169267	-106.733360
5.250000	-0.125075	-79.744816	-48.785821	84.270487	-48.785821	84.270487	-0.171850	-107.665220
5.300000	-0.126953	-80.432609	-48.573612	82.703135	-48.573612	82.703135	-0.174470	-108.595930
5.350000	-0.128857	-81.118969	-48.364186	81.136575	-48.364186	81.136575	-0.177128	-109.525530
5.400000	-0.130788	-81.803904	-48.157488	79.570844	-48.157488	79.570844	-0.179822	-110.454063
5.450000	-0.132746	-82.487421	-47.953465	78.005978	-47.953465	78.005978	-0.182555	-111.381572
5.500000	-0.134732	-83.169528	-47.752066	76.442011	-47.752066	76.442011	-0.185327	-112.308101
5.550000	-0.136746	-83.850231	-47.553240	74.878974	-47.553240	74.878974	-0.188137	-113.233696
5.600000	-0.138789	-84.529539	-47.356940	73.316900	-47.356940	73.316900	-0.190986	-114.158400
5.650000	-0.140861	-85.207461	-47.163118	71.755816	-47.163118	71.755816	-0.193876	-115.082262
5.700000	-0.142962	-85.884005	-46.971729	70.195751	-46.971729	70.195751	-0.196806	-116.005327
5.750000	-0.145093	-86.559180	-46.782728	68.636731	-46.782728	68.636731	-0.199776	-116.927642
5.800000	-0.147254	-87.232995	-46.596073	67.078781	-46.596073	67.078781	-0.202787	-117.849258
5.850000	-0.149446	-87.905460	-46.411722	65.521925	-46.411722	65.521925	-0.205840	-118.770221
5.900000	-0.151669	-88.576584	-46.229633	63.966184	-46.229633	63.966184	-0.208935	-119.690583
5.950000	-0.153923	-89.246378	-46.049769	62.411582	-46.049769	62.411582	-0.212072	-120.610393
6.000000	-0.156209	-89.914852	-45.872090	60.858136	-45.872090	60.858136	-0.215251	-121.529703
6.050000	-0.158527	-90.582015	-45.696560	59.305868	-45.696560	59.305868	-0.218474	-122.448564
6.100000	-0.160878	-91.247880	-45.523142	57.754793	-45.523142	57.754793	-0.221740	-123.367030
6.150000	-0.163262	-91.912457	-45.351800	56.204930	-45.351800	56.204930	-0.225050	-124.285153
6.200000	-0.165679	-92.575757	-45.182501	54.656294	-45.182501	54.656294	-0.228403	-125.202987
6.250000	-0.168131	-93.237793	-45.015212	53.108900	-45.015212	53.108900	-0.231801	-126.120587
6.300000	-0.170635	-93.897875	-44.849243	51.563478	-44.849243	51.563478	-0.235269	-127.037942
6.350000	-0.173140	-94.557956	-44.686386	50.018057	-44.686386	50.018057	-0.238738	-127.955297
6.400000	-0.175712	-95.215691	-44.524425	48.475088	-44.524425	48.475088	-0.242292	-128.872542
6.450000	-0.178291	-95.873212	-44.365241	46.932342	-44.365241	46.932342	-0.245855	-129.789776
6.500000	-0.180931	-96.528645	-44.207151	45.391863	-44.207151	45.391863	-0.249498	-130.707120
6.550000	-0.183584	-97.183661	-44.051540	43.851837	-44.051540	43.851837	-0.253157	-131.624486
6.600000	-0.186295	-97.836842	-43.897193	42.313879	-43.897193	42.313879	-0.256889	-132.542145
6.650000	-0.189024	-98.489411	-43.745058	40.776612	-43.745058	40.776612	-0.260645	-133.459902
6.700000	-0.191806	-99.140388	-43.594332	39.241203	-43.594332	39.241203	-0.264467	-134.378096
6.750000	-0.194614	-99.790569	-43.445582	37.706723	-43.445582	37.706723	-0.268322	-135.296509
6.800000	-0.197469	-100.439394	-43.298362	36.173883	-43.298362	36.173883	-0.272234	-136.215463
6.850000	-0.200357	-101.087249	-43.152911	34.642215	-43.152911	34.642215	-0.276188	-137.134805
6.900000	-0.203286	-101.733974	-43.009089	33.111961	-43.009089	33.111961	-0.280193	-138.054749
6.950000	-0.206255	-102.379567	-42.866854	31.583121	-42.866854	31.583121	-0.284247	-138.975296
7.000000	-0.209260	-103.024246	-42.726326	30.055463	-42.726326	30.055463	-0.288344	-139.896465
7.050000	-0.212313	-103.667644	-42.587230	28.529461	-42.587230	28.529461	-0.292499	-140.818503
7.100000	-0.215387	-104.310506	-42.450003	27.004170	-42.450003	27.004170	-0.296681	-141.740974
7.150000	-0.218516	-104.951994	-42.314097	25.480714	-42.314097	25.480714	-0.300928	-142.664592
7.200000	-0.221686	-105.592482	-42.179715	23.958620	-42.179715	23.958620	-0.305224	-143.589154
7.250000	-0.224897	-106.231988	-42.046838	22.437888	-42.046838	22.437888	-0.309570	-144.514727
7.300000	-0.228151	-106.870527	-41.915447	20.918515	-41.915447	20.918515	-0.313965	-145.441382
7.350000	-0.231446	-107.508116	-41.785524	19.400500	-41.785524	19.400500	-0.318409	-146.369187
7.400000	-0.234784	-108.144771	-41.657052	17.883842	-41.657052	17.883842	-0.322903	-147.298215
7.450000	-0.238165	-108.780510	-41.530013	16.368536	-41.530013	16.368536	-0.327447	-148.228536
7.500000	-0.241590	-109.415350	-41.404390	14.854579	-41.404390	14.854579	-0.332040	-149.160222
7.550000	-0.245059	-110.049271	-41.280152	13.342028	-41.280152	13.342028	-0.336686	-150.093413
7.600000	-0.248573	-110.682328	-41.157302	11.830817	-41.157302	11.830817	-0.341381	-151.028123
7.650000	-0.252131	-111.314541	-41.035823	10.320944	-41.035823	10.320944	-0.346126	-151.964426
7.700000	-0.255733	-111.945926	-40.915702	8.812402	-40.915702	8.812402	-0.350921	-152.902397
7.750000	-0.259381	-112.576502	-40.796924	7.305188	-40.796924	7.305188	-0.355767	-153.842113
7.800000	-0.263073	-113.206287	-40.679477	5.799295	-40.679477	5.799295	-0.360662	-154.783649
7.850000	-0.266812	-113.835300	-40.563345	4.294718	-40.563345	4.294718	-0.365607	-155.727083
7.900000	-0.270596	-114.463559	-40.448518	2.791452	-40.448518	2.791452	-0.370602	-156.672493
7.950000	-0.274426	-115.091084	-40.334982	1.289489	-40.334982	1.289489	-0.375647	-157.619958
8.000000	-0.278302	-115.717892	-40.222726	-0.211176	-40.222726	-0.211176	-0.380741	-158.569556
8.050000	-0.282225	-116.344005	-40.111738	-1.710549	-40.111738	-1.710549	-0.385885	-159.521367
8.100000	-0.286196	-116.969440	-40.002008	-3.208636	-40.002008	-3.208636	-0.391079	-160.475473
8.150000	-0.290213	-117.594218	-39.893525	-4.705445	-39.893525	-4.705445	-0.396322	-161.431955
8.200000	-0.294278	-118.218359	-39.786279	-6.200980	-39.786279	-6.200980	-0.401614	-162.390894
8.250000	-0.298391	-118.841882	-39.680261	-7.695248	-39.680261	-7.695248	-0.406956	-163.352374
8.300000	-0.302552	-119.464808	-39.575461	-9.188256	-39.575461	-9.188256	-0.412346	-164.316477
8.350000	-0.306761	-120.087157	-39.471870	-10.680008	-39.471870	-10.680008	-0.417784	-165.283287
8.400000	-0.311018	-120.708950	-39.369481	-12.170511	-39.369481	-12.170511	-0.423271	-166.252890
8.450000	-0.315325	-121.330207	-39.268286	-13.659770	-39.268286	-13.659770	-0.428807	-167.225371
8.500000	-0.319680	-121.950950	-39.168276	-15.147789	-39.168276	-15.147789	-0.434390	-168.200814
8.550000	-0.324085	-122.571200	-39.069445	-16.634574	-39.069445	-16.634574	-0.440020	-169.179308
8.600000	-0.328539	-123.190978	-38.971786	-18.120129	-38.971786	-18.120129	-0.445697	-170.160938
8.650000	-0.333043	-123.810306	-38.875293	-19.604456	-38.875293	-19.604456	-0.451421	-171.145793
8.700000	-0.337596	-124.429205	-38.779960	-21.087561	-38.779960	-21.087561	-0.457192	-172.133960
8.750000	-0.342200	-125.047698	-38.685781	-22.569444	-38.685781	-22.569444	-0.463008	-173.125529
8.800000	-0.346855	-125.665791	-38.592758	-24.050056	-38.592758	-24.050056	-0.468871	-174.120744
8.850000	-0.351561	-126.283525	-38.500882	-25.529449	-38.500882	-25.529449	-0.474779	-175.119548
8.900000	-0.356318	-126.900921	-38.410146	-27.007626	-38.410146	-27.007626	-0.480731	-176.122031
8.950000	-0.361125	-127.518003	-38.320548	-28.484585	-38.320548	-28.484585	-0.486726	-177.128284
9.000000	-0.365983	-128.134793	-38.232084	-29.960325	-38.232084	-29.960325	-0.492765	-178.138398
9.050000	-0.370892	-128.751316	-38.144750	-31.434843	-38.144750	-31.434843	-0.498845	-179.152464
9.100000	-0.375852	-129.367594	-38.058543	-32.908137	-38.058543	-32.908137	-0.504968	179.829425
9.150000	-0.380863	-129.983651	-37.973461	-34.380203	-37.973461	-34.380203	-0.511131	178.807177
9.200000	-0.385925	-130.599511	-37.889500	-35.851034	-37.889500	-35.851034	-0.517334	177.780699
9.250000	-0.391038	-131.215198	-37.806659	-37.320624	-37.806659	-37.320624	-0.523576	176.749900
9.300000	-0.396203	-131.830737	-37.724935	-38.788966	-37.724935	-38.788966	-0.529856	175.714684
9.350000	-0.401419	-132.446152	-37.644328	-40.256051	-37.644328	-40.256051	-0.536174	174.674960
9.400000	-0.406687	-133.061468	-37.564835	-41.721867	-37.564835	-41.721867	-0.542528	173.630633
9.450000	-0.412006	-133.676709	-37.486456	-43.186404	-37.486456	-43.186404	-0.548917	172.581610
9.500000	-0.417376	-134.291902	-37.409190	-44.649649	-37.409190	-44.649649	-0.555340	171.527798
9.550000	-0.422798	-134.907072	-37.333037	-46.111585	-37.333037	-46.111585	-0.561796	170.469102
9.600000	-0.428272	-135.522244	-37.257995	-47.572199	-37.257995	-47.572199	-0.568285	169.405429
9.650000	-0.433797	-136.137445	-37.184065	-49.031471	-37.184065	-49.031471	-0.574803	168.336686
9.700000	-0.439373	-136.752700	-37.111248	-50.489382	-37.111248	-50.489382	-0.581351	167.262780
9.750000	-0.445000	-137.368036	-37.039542	-51.945911	-37.039542	-51.945911	-0.587927	166.183616
9.800000	-0.450679	-137.983480	-36.968950	-53.401036	-36.968950	-53.401036	-0.594529	165.099103
9.850000	-0.456409	-138.599059	-36.899471	-54.854731	-36.899471	-54.854731	-0.601156	164.009148
9.900000	-0.462190	-139.214801	-36.831106	-56.306972	-36.831106	-56.306972	-0.607807	162.913659
9.950000	-0.468021	-139.830731	-36.763856	-57.757728	-36.763856	-57.757728	-0.614479	161.812545
10.000000	-0.473904	-140.446880	-36.697723	-59.206971	-36.697723	-59.206971	-0.621171	160.705714
