! freq	dB(S11)	phase(S11)	dB(S12)	phase(S12)	
!     	dB(S21)	phase(S21)	dB(S22)	phase(S22)	
!S-par simulation data
#  GHz  S  DB  R 50
0.000000	-0.000000	0.000000	-334.847364	0.000000	-334.847364	0.000000	-0.000000	0.000000
0.050000	-0.000103	-0.858745	-104.157100	53.622280	-104.157100	53.622280	-0.000104	-0.858553
0.100000	-0.000410	-1.717249	-100.410071	65.165714	-100.410071	65.165714	-0.000413	-1.716861
0.150000	-0.000908	-2.575285	-97.541297	71.089887	-97.541297	71.089887	-0.000914	-2.574697
0.200000	-0.001580	-3.432666	-95.331063	74.190089	-95.331063	74.190089	-0.001590	-3.431868
0.250000	-0.002414	-4.289174	-93.569359	75.844991	-93.569359	75.844991	-0.002428	-4.288157
0.300000	-0.003373	-5.144761	-92.123020	76.814332	-92.123020	76.814332	-0.003391	-5.143517
0.350000	-0.004440	-5.999304	-90.908922	77.347931	-90.908922	77.347931	-0.004461	-5.997827
0.400000	-0.005592	-6.852749	-89.873423	77.618657	-89.873423	77.618657	-0.005615	-6.851032
0.450000	-0.006807	-7.705068	-88.980151	77.728724	-88.980151	77.728724	-0.006833	-7.703108
0.500000	-0.008068	-8.556257	-88.203493	77.743724	-88.203493	77.743724	-0.008094	-8.554053
0.550000	-0.009357	-9.406329	-87.524823	77.709069	-87.524823	77.709069	-0.009382	-9.403881
0.600000	-0.010661	-10.255308	-86.930212	77.658574	-86.930212	77.658574	-0.010685	-10.252618
0.650000	-0.011971	-11.103222	-86.408993	77.619278	-86.408993	77.619278	-0.011992	-11.100295
0.700000	-0.013276	-11.950104	-85.952813	77.614317	-85.952813	77.614317	-0.013295	-11.946943
0.750000	-0.014573	-12.795986	-85.554988	77.664767	-85.554988	77.664767	-0.014589	-12.792594
0.800000	-0.015856	-13.640893	-85.210042	77.790884	-85.210042	77.790884	-0.015868	-13.637277
0.850000	-0.017124	-14.484851	-84.913361	78.013004	-84.913361	78.013004	-0.017132	-14.481014
0.900000	-0.018373	-15.327878	-84.660917	78.352229	-84.660917	78.352229	-0.018379	-15.323825
0.950000	-0.019605	-16.169989	-84.449029	78.830961	-84.449029	78.830961	-0.019607	-16.165723
1.000000	-0.020820	-17.011191	-84.274151	79.473309	-84.274151	79.473309	-0.020819	-17.006717
1.050000	-0.022017	-17.851490	-84.132641	80.305356	-84.132641	80.305356	-0.022013	-17.846809
1.100000	-0.023198	-18.690886	-84.020538	81.355223	-84.020538	81.355223	-0.023191	-18.686001
1.150000	-0.024363	-19.529374	-83.933297	82.652853	-83.933297	82.652853	-0.024355	-19.524287
1.200000	-0.025515	-20.366948	-83.865508	84.229338	-83.865508	84.229338	-0.025505	-20.361660
1.250000	-0.026654	-21.203597	-83.810592	86.115614	-83.810592	86.115614	-0.026642	-21.198110
1.300000	-0.027782	-22.039270	-83.760233	88.355998	-83.760233	88.355998	-0.027768	-22.033583
1.350000	-0.028899	-22.873990	-83.703888	90.958515	-83.703888	90.958515	-0.028885	-22.868105
1.400000	-0.030008	-23.707742	-83.629811	93.933195	-83.629811	93.933195	-0.029993	-23.701659
1.450000	-0.031109	-24.540510	-83.524804	97.272794	-83.524804	97.272794	-0.031093	-24.534229
1.500000	-0.032203	-25.372275	-83.374970	100.947105	-83.374970	100.947105	-0.032187	-25.365796
1.550000	-0.033292	-26.203019	-83.166966	104.899116	-83.166966	104.899116	-0.033275	-26.196341
1.600000	-0.034376	-27.032722	-82.889633	109.045085	-82.889633	109.045085	-0.034359	-27.025845
1.650000	-0.035456	-27.861364	-82.535658	113.279949	-82.535658	113.279949	-0.035439	-27.854288
1.700000	-0.036532	-28.688542	-82.066395	117.424890	-82.066395	117.424890	-0.036516	-28.681266
1.750000	-0.037607	-29.515148	-81.572556	121.515900	-81.572556	121.515900	-0.037590	-29.507674
1.800000	-0.038680	-30.340382	-80.986436	125.279203	-80.986436	125.279203	-0.038663	-30.332709
1.850000	-0.039752	-31.164636	-80.358584	128.808430	-80.358584	128.808430	-0.039735	-31.156763
1.900000	-0.040823	-31.987670	-79.681323	131.947879	-79.681323	131.947879	-0.040806	-31.979597
1.950000	-0.041894	-32.809484	-78.968584	134.697549	-78.968584	134.697549	-0.041877	-32.801212
2.000000	-0.042965	-33.630248	-78.245489	137.117168	-78.245489	137.117168	-0.042948	-33.621777
2.050000	-0.044037	-34.449541	-77.495166	139.074716	-77.495166	139.074716	-0.044020	-34.440871
2.100000	-0.045110	-35.268186	-76.772525	140.853293	-76.772525	140.853293	-0.045093	-35.259318
2.150000	-0.046185	-36.085153	-76.029549	142.181770	-76.029549	142.181770	-0.046168	-36.076087
2.200000	-0.047262	-36.900850	-75.294194	143.215528	-75.294194	143.215528	-0.047244	-36.891586
2.250000	-0.048342	-37.715261	-74.569768	143.983849	-74.569768	143.983849	-0.048324	-37.705800
2.300000	-0.049424	-38.528369	-73.858554	144.514439	-73.858554	144.514439	-0.049406	-38.518711
2.350000	-0.050509	-39.340158	-73.162044	144.832744	-73.162044	144.832744	-0.050491	-39.330304
2.400000	-0.051598	-40.150612	-72.481131	144.961682	-72.481131	144.961682	-0.051579	-40.140563
2.450000	-0.052692	-40.959716	-71.816262	144.921615	-71.816262	144.921615	-0.052672	-40.949473
2.500000	-0.053789	-41.767457	-71.167565	144.730477	-71.167565	144.730477	-0.053769	-41.757020
2.550000	-0.054891	-42.573759	-70.533663	144.398715	-70.533663	144.398715	-0.054870	-42.563130
2.600000	-0.055999	-43.378669	-69.915714	143.946313	-69.915714	143.946313	-0.055977	-43.367848
2.650000	-0.057111	-44.182174	-69.313311	143.384936	-69.313311	143.384936	-0.057089	-44.171162
2.700000	-0.058230	-44.984262	-68.725979	142.724704	-68.725979	142.724704	-0.058207	-44.973059
2.750000	-0.059355	-45.784921	-68.153198	141.974377	-68.153198	141.974377	-0.059331	-45.773529
2.800000	-0.060486	-46.584141	-67.594426	141.141523	-67.594426	141.141523	-0.060461	-46.572561
2.850000	-0.061624	-47.381912	-67.049109	140.232658	-67.049109	140.232658	-0.061599	-47.370145
2.900000	-0.062770	-48.178225	-66.516693	139.253366	-66.516693	139.253366	-0.062744	-48.166270
2.950000	-0.063923	-48.973070	-65.996628	138.208407	-65.996628	138.208407	-0.063896	-48.960930
3.000000	-0.065084	-49.766441	-65.488374	137.101798	-65.488374	137.101798	-0.065057	-49.754115
3.050000	-0.066254	-50.558330	-64.991401	135.936885	-64.991401	135.936885	-0.066226	-50.545819
3.100000	-0.067433	-51.348731	-64.505192	134.716397	-64.505192	134.716397	-0.067404	-51.336036
3.150000	-0.068621	-52.137638	-64.029241	133.442493	-64.029241	133.442493	-0.068591	-52.124760
3.200000	-0.069819	-52.925049	-63.563051	132.116788	-63.563051	132.116788	-0.069788	-52.911988
3.250000	-0.071027	-53.710960	-63.106136	130.740376	-63.106136	130.740376	-0.070996	-53.697716
3.300000	-0.072246	-54.495368	-62.658015	129.313833	-62.658015	129.313833	-0.072214	-54.481943
3.350000	-0.073476	-55.278188	-62.217383	127.834266	-62.217383	127.834266	-0.073443	-55.264580
3.400000	-0.074716	-56.059789	-61.787247	126.313824	-61.787247	126.313824	-0.074682	-56.045999
3.450000	-0.075971	-56.839420	-61.360126	124.725472	-61.360126	124.725472	-0.075937	-56.825450
3.500000	-0.077237	-57.617784	-60.941872	123.091186	-60.941872	123.091186	-0.077202	-57.603632
3.550000	-0.078514	-58.394883	-60.531963	121.409844	-60.531963	121.409844	-0.078479	-58.380548
3.600000	-0.079807	-59.170267	-60.125737	119.660979	-60.125737	119.660979	-0.079771	-59.155750
3.650000	-0.081115	-59.944070	-59.723456	117.842953	-59.723456	117.842953	-0.081079	-59.929369
3.700000	-0.082436	-60.716644	-59.327663	115.966372	-59.327663	115.966372	-0.082399	-60.701759
3.750000	-0.083770	-61.487997	-58.937939	114.028828	-58.937939	114.028828	-0.083732	-61.472927
3.800000	-0.085126	-62.257400	-58.545342	111.976914	-58.545342	111.976914	-0.085087	-62.242142
3.850000	-0.086497	-63.025651	-58.156540	109.843132	-58.156540	109.843132	-0.086458	-63.010204
3.900000	-0.087884	-63.792772	-57.770923	107.621633	-57.770923	107.621633	-0.087844	-63.777133
3.950000	-0.089291	-64.558497	-57.383454	105.275461	-57.383454	105.275461	-0.089250	-64.542663
4.000000	-0.090722	-65.322835	-56.989467	102.766028	-56.989467	102.766028	-0.090680	-65.306800
4.050000	-0.092174	-66.086233	-56.593018	100.115201	-56.593018	100.115201	-0.092131	-66.069993
4.100000	-0.093646	-66.848737	-56.193334	97.311095	-56.193334	97.311095	-0.093602	-66.832287
4.150000	-0.095155	-67.610081	-55.771480	94.211987	-55.771480	94.211987	-0.095110	-67.593409
4.200000	-0.096698	-68.370868	-55.330935	90.840929	-55.330935	90.840929	-0.096651	-68.353961
4.250000	-0.098276	-69.131313	-54.870469	87.182406	-54.870469	87.182406	-0.098227	-69.114159
4.300000	-0.099903	-69.891596	-54.376503	83.130012	-54.376503	83.130012	-0.099851	-69.874175
4.350000	-0.101622	-70.652587	-53.801847	78.413896	-53.801847	78.413896	-0.101566	-70.634861
4.400000	-0.103441	-71.414978	-53.150791	73.091334	-53.150791	73.091334	-0.103380	-71.396908
4.450000	-0.105372	-72.179056	-52.431266	67.143456	-52.431266	67.143456	-0.105303	-72.160599
4.500000	-0.107616	-72.948460	-51.487938	59.898318	-51.487938	59.898318	-0.107534	-72.929506
4.550000	-0.110371	-73.726117	-50.274551	51.232283	-50.274551	51.232283	-0.110268	-73.706514
4.600000	-0.114337	-74.520331	-48.591526	40.505153	-48.591526	40.505153	-0.114191	-74.499793
4.650000	-0.121559	-75.347702	-46.161805	26.755512	-46.161805	26.755512	-0.121312	-75.325669
4.700000	-0.141263	-76.249331	-42.404761	6.997634	-42.404761	6.997634	-0.140697	-76.224584
4.750000	-0.230592	-77.157070	-36.595887	-32.727705	-36.595887	-32.727705	-0.228514	-77.129728
4.800000	-0.252310	-76.703044	-35.822735	-114.968901	-35.822735	-114.968901	-0.250011	-76.696387
4.850000	-0.157606	-77.505403	-40.736013	-155.943272	-40.736013	-155.943272	-0.156965	-77.497215
4.900000	-0.137509	-78.394025	-43.615631	-174.755367	-43.615631	-174.755367	-0.137237	-78.383329
4.950000	-0.132406	-79.217249	-45.101586	173.202740	-45.101586	173.202740	-0.132265	-79.205393
5.000000	-0.131772	-80.011343	-45.701837	164.642193	-45.701837	164.642193	-0.131713	-79.999120
5.050000	-0.133758	-80.796412	-45.526471	158.394920	-45.526471	158.394920	-0.133794	-80.784545
5.100000	-0.139835	-81.590043	-44.364068	152.808239	-44.364068	152.808239	-0.140092	-81.579563
5.150000	-0.162449	-82.393633	-41.491203	140.017983	-41.491203	140.017983	-0.163605	-82.385482
5.200000	-0.192241	-82.786091	-40.480891	92.646503	-40.480891	92.646503	-0.194511	-82.763457
5.250000	-0.151058	-83.456115	-45.907605	74.406243	-45.907605	74.406243	-0.151678	-83.430966
5.300000	-0.142240	-84.246205	-48.536621	79.964628	-48.536621	79.964628	-0.142446	-84.223082
5.350000	-0.141035	-85.005118	-49.365458	85.029010	-49.365458	85.029010	-0.141116	-84.983039
5.400000	-0.141671	-85.747322	-49.578215	87.563760	-49.578215	87.563760	-0.141699	-85.725782
5.450000	-0.142995	-86.479950	-49.561480	88.396926	-49.561480	88.396926	-0.142996	-86.458691
5.500000	-0.144655	-87.206055	-49.449168	88.187666	-49.449168	88.187666	-0.144640	-87.184930
5.550000	-0.146492	-87.927712	-49.297594	87.409342	-49.297594	87.409342	-0.146466	-87.906639
5.600000	-0.148442	-88.645923	-49.127316	86.294142	-49.127316	86.294142	-0.148410	-88.624850
5.650000	-0.150491	-89.360721	-48.945817	84.946782	-48.945817	84.946782	-0.150453	-89.339609
5.700000	-0.152585	-90.073812	-48.761997	83.504737	-48.761997	83.504737	-0.152544	-90.052644
5.750000	-0.154753	-90.783934	-48.574206	81.964848	-48.574206	81.964848	-0.154709	-90.762689
5.800000	-0.156946	-91.493044	-48.387847	80.393291	-48.387847	80.393291	-0.156899	-91.471715
5.850000	-0.159218	-92.198857	-48.198913	78.771896	-48.198913	78.771896	-0.159169	-92.177427
5.900000	-0.161511	-92.903772	-48.012569	77.146226	-48.012569	77.146226	-0.161461	-92.882239
5.950000	-0.163857	-93.606507	-47.826729	75.510177	-47.826729	75.510177	-0.163804	-93.584864
6.000000	-0.166241	-94.307653	-47.642751	73.875604	-47.642751	73.875604	-0.166187	-94.285897
6.050000	-0.168657	-95.007528	-47.460996	72.242213	-47.460996	72.242213	-0.168602	-94.985657
6.100000	-0.171128	-95.705194	-47.280696	70.616917	-47.280696	70.616917	-0.171072	-95.683203
6.150000	-0.173618	-96.402159	-47.103385	68.994391	-47.103385	68.994391	-0.173560	-96.380048
6.200000	-0.176169	-97.096771	-46.927599	67.382706	-46.927599	67.382706	-0.176110	-97.074538
6.250000	-0.178744	-97.790529	-46.754616	65.775018	-46.754616	65.775018	-0.178684	-97.768173
6.300000	-0.181363	-98.482683	-46.583746	64.174843	-46.583746	64.174843	-0.181302	-98.460203
6.350000	-0.184024	-99.173393	-46.415010	62.581252	-46.415010	62.581252	-0.183962	-99.150789
6.400000	-0.186711	-99.863184	-46.248762	60.991850	-46.248762	60.991850	-0.186649	-99.840455
6.450000	-0.189458	-100.550983	-46.083954	59.411568	-46.083954	59.411568	-0.189395	-100.528130
6.500000	-0.192224	-101.238193	-45.921705	57.834055	-45.921705	57.834055	-0.192160	-101.215215
6.550000	-0.195050	-101.923512	-45.760765	56.265631	-45.760765	56.265631	-0.194985	-101.900409
6.600000	-0.197905	-102.607978	-45.601973	54.701624	-45.601973	54.701624	-0.197839	-102.584750
6.650000	-0.200802	-103.291179	-45.444899	53.144168	-45.444899	53.144168	-0.200736	-103.267826
6.700000	-0.203751	-103.972885	-45.289267	51.595137	-45.289267	51.595137	-0.203684	-103.949407
6.750000	-0.206727	-104.653843	-45.135713	50.050318	-45.135713	50.050318	-0.206660	-104.630240
6.800000	-0.209755	-105.333433	-44.983645	48.513900	-44.983645	48.513900	-0.209687	-105.309706
6.850000	-0.212819	-106.012046	-44.833366	46.983481	-44.833366	46.983481	-0.212751	-105.988194
6.900000	-0.215929	-106.689538	-44.684746	45.460550	-44.684746	45.460550	-0.215860	-106.665562
6.950000	-0.219084	-107.365911	-44.537745	43.945105	-44.537745	43.945105	-0.219015	-107.341811
7.000000	-0.222277	-108.041395	-44.392554	42.436136	-44.392554	42.436136	-0.222208	-108.017171
7.050000	-0.225525	-108.715635	-44.248872	40.936234	-44.248872	40.936234	-0.225455	-108.691288
7.100000	-0.228804	-109.389200	-44.107114	39.441736	-44.107114	39.441736	-0.228734	-109.364730
7.150000	-0.232147	-110.061417	-43.966816	37.958048	-43.966816	37.958048	-0.232076	-110.036824
7.200000	-0.235514	-110.733157	-43.828514	36.478638	-43.828514	36.478638	-0.235443	-110.708440
7.250000	-0.238954	-111.403465	-43.691689	35.012066	-43.691689	35.012066	-0.238883	-111.378625
7.300000	-0.242412	-112.073474	-43.556888	33.548558	-43.556888	33.548558	-0.242340	-112.048511
7.350000	-0.245952	-112.741991	-43.423656	32.100369	-43.423656	32.100369	-0.245880	-112.716905
7.400000	-0.249503	-113.410369	-43.292420	30.653862	-43.292420	30.653862	-0.249430	-113.385160
7.450000	-0.253148	-114.077221	-43.162941	29.225857	-43.162941	29.225857	-0.253075	-114.051887
7.500000	-0.256794	-114.744072	-43.035364	27.797851	-43.035364	27.797851	-0.256720	-114.718615
7.550000	-0.260548	-115.409392	-42.909849	26.392587	-42.909849	26.392587	-0.260473	-115.383810
7.600000	-0.264303	-116.074713	-42.786122	24.987322	-42.786122	24.987322	-0.264227	-116.049006
7.650000	-0.268160	-116.738764	-42.664796	23.606245	-42.664796	23.606245	-0.268083	-116.712930
7.700000	-0.272029	-117.402701	-42.545201	22.227367	-42.545201	22.227367	-0.271950	-117.376739
7.750000	-0.275996	-118.065620	-42.428345	20.874841	-42.428345	20.874841	-0.275915	-118.039528
7.800000	-0.279985	-118.728337	-42.313261	19.527585	-42.313261	19.527585	-0.279902	-118.702113
7.850000	-0.284068	-119.390279	-42.201257	18.209781	-42.201257	18.209781	-0.283984	-119.363920
7.900000	-0.288186	-120.051964	-42.091199	16.901794	-42.091199	16.901794	-0.288098	-120.025467
7.950000	-0.292395	-120.713112	-41.984566	15.627607	-41.984566	15.627607	-0.292305	-120.686468
8.000000	-0.296653	-121.373991	-41.880238	14.370319	-41.880238	14.370319	-0.296559	-121.347198
8.050000	-0.301001	-122.034563	-41.779675	13.152905	-41.779675	13.152905	-0.300904	-122.007609
8.100000	-0.305416	-122.694916	-41.682046	11.963972	-41.682046	11.963972	-0.305315	-122.667794
8.150000	-0.309923	-123.355190	-41.588487	10.823446	-41.588487	10.823446	-0.309818	-123.327885
8.200000	-0.314521	-124.015385	-41.498878	9.731329	-41.498878	9.731329	-0.314414	-123.987883
8.250000	-0.319215	-124.675727	-41.413542	8.699756	-41.413542	8.699756	-0.319107	-124.648012
8.300000	-0.324041	-125.336274	-41.333692	7.752945	-41.333692	7.752945	-0.323935	-125.308325
8.350000	-0.328934	-125.997027	-41.256831	6.853508	-41.256831	6.853508	-0.328832	-125.968837
8.400000	-0.334030	-126.658493	-41.187463	6.106512	-41.187463	6.106512	-0.333939	-126.630047
8.450000	-0.339310	-127.320760	-41.123969	5.507318	-41.123969	5.507318	-0.339238	-127.292069
8.500000	-0.344867	-127.984346	-41.067057	5.138819	-41.067057	5.138819	-0.344822	-127.955454
8.550000	-0.350750	-128.649526	-41.014686	5.043257	-41.014686	5.043257	-0.350737	-128.620506
8.600000	-0.357085	-129.316897	-40.963778	5.320503	-40.963778	5.320503	-0.357102	-129.287842
8.650000	-0.364157	-129.987725	-40.905135	6.188056	-40.905135	6.188056	-0.364192	-129.958725
8.700000	-0.372333	-130.663347	-40.816814	7.891542	-40.816814	7.891542	-0.372367	-130.634433
8.750000	-0.382496	-131.346277	-40.634983	10.929917	-40.634983	10.929917	-0.382508	-131.317402
8.800000	-0.396150	-132.038382	-40.219142	15.772242	-40.219142	15.772242	-0.396125	-132.009445
8.850000	-0.417470	-132.738482	-39.191848	22.639471	-39.191848	22.639471	-0.417388	-132.709352
8.900000	-0.456379	-133.408960	-36.891058	28.480439	-36.891058	28.480439	-0.456199	-133.379572
8.950000	-0.519615	-133.787109	-33.227477	21.285749	-33.227477	21.285749	-0.519255	-133.758383
9.000000	-0.493157	-133.762266	-31.620423	-5.845452	-31.620423	-5.845452	-0.493034	-133.734985
9.050000	-0.422555	-134.418301	-33.067510	-24.011013	-33.067510	-24.011013	-0.422570	-134.389586
9.100000	-0.401485	-135.234498	-34.492405	-30.438545	-34.492405	-30.438545	-0.401475	-135.205001
9.150000	-0.398531	-135.997762	-35.406444	-32.888143	-35.406444	-32.888143	-0.398500	-135.967837
9.200000	-0.401012	-136.720467	-35.976100	-34.148426	-35.976100	-34.148426	-0.400971	-136.690224
9.250000	-0.405344	-137.420353	-36.344239	-35.074425	-36.344239	-35.074425	-0.405299	-137.389837
9.300000	-0.410463	-138.106051	-36.580741	-35.928264	-36.580741	-35.928264	-0.410416	-138.075288
9.350000	-0.415914	-138.783487	-36.738195	-36.802337	-36.738195	-36.802337	-0.415868	-138.752494
9.400000	-0.421554	-139.454978	-36.836758	-37.725929	-36.836758	-37.725929	-0.421509	-139.423768
9.450000	-0.427299	-140.122473	-36.894502	-38.706301	-36.894502	-38.706301	-0.427256	-140.091055
9.500000	-0.433113	-140.787252	-36.923538	-39.738974	-36.923538	-39.738974	-0.433072	-140.755632
9.550000	-0.438976	-141.450297	-36.933215	-40.815582	-36.933215	-40.815582	-0.438936	-141.418480
9.600000	-0.444878	-142.112185	-36.929330	-41.925669	-36.929330	-41.925669	-0.444839	-142.080174
9.650000	-0.450818	-142.773088	-36.913277	-43.068919	-36.913277	-43.068919	-0.450780	-142.740886
9.700000	-0.456810	-143.433173	-36.885124	-44.250173	-36.885124	-44.250173	-0.456771	-143.400783
9.750000	-0.462836	-144.092965	-36.851187	-45.451745	-36.851187	-45.451745	-0.462796	-144.060387
9.800000	-0.468898	-144.752541	-36.812120	-46.672189	-36.812120	-46.672189	-0.468856	-144.719775
9.850000	-0.475006	-145.412010	-36.767521	-47.914665	-36.767521	-47.914665	-0.474961	-145.379058
9.900000	-0.481160	-146.071571	-36.719145	-49.173929	-36.719145	-49.173929	-0.481112	-146.038432
9.950000	-0.487351	-146.731281	-36.668377	-50.444882	-36.668377	-50.444882	-0.487298	-146.697954
10.000000	-0.493580	-147.391182	-36.615527	-51.726663	-36.615527	-51.726663	-0.493522	-147.357668
