! freq	dB(S11)	phase(S11)	dB(S12)	phase(S12)	
!     	dB(S21)	phase(S21)	dB(S22)	phase(S22)	
!S-par simulation data
#  GHz  S  DB  R 50
0.000000	-0.000000	-0.000000	-348.913374	180.000000	-348.913374	180.000000	0.000000	0.000000
0.050000	-0.000288	-0.767805	-87.112165	-52.417919	-87.112165	-52.417919	-0.000605	-1.025272
0.100000	-0.001085	-1.534100	-84.263385	-30.281365	-84.263385	-30.281365	-0.002140	-2.046297
0.150000	-0.002221	-2.298016	-83.673684	-17.616696	-83.673684	-17.616696	-0.004051	-3.061848
0.200000	-0.003523	-3.059305	-83.754089	-9.635629	-83.754089	-9.635629	-0.005941	-4.072828
0.250000	-0.004855	-3.818239	-84.133295	-4.254428	-84.133295	-4.254428	-0.007648	-5.080771
0.300000	-0.006142	-4.575441	-84.677778	-0.424031	-84.677778	-0.424031	-0.009170	-6.087005
0.350000	-0.007330	-5.331043	-85.354657	2.002833	-85.354657	2.002833	-0.010508	-7.091947
0.400000	-0.008472	-6.086078	-86.112842	3.900108	-86.112842	3.900108	-0.011785	-8.096448
0.450000	-0.009517	-6.840126	-86.968530	4.805234	-86.968530	4.805234	-0.012962	-9.100160
0.500000	-0.010508	-7.593663	-87.905683	5.108992	-87.905683	5.108992	-0.014107	-10.103331
0.550000	-0.011464	-8.346851	-88.945212	4.999223	-88.945212	4.999223	-0.015231	-11.106118
0.600000	-0.012370	-9.099426	-90.076739	4.098869	-90.076739	4.098869	-0.016343	-12.108027
0.650000	-0.013263	-9.851693	-91.342952	2.767666	-91.342952	2.767666	-0.017459	-13.109410
0.700000	-0.014142	-10.603653	-92.784306	1.005614	-92.784306	1.005614	-0.018578	-14.110266
0.750000	-0.015011	-11.355018	-94.419890	-1.816366	-94.419890	-1.816366	-0.019711	-15.110024
0.800000	-0.015879	-12.106088	-96.381481	-5.524119	-96.381481	-5.524119	-0.020852	-16.109231
0.850000	-0.016747	-12.856734	-98.814665	-10.590391	-98.814665	-10.590391	-0.022003	-17.107639
0.900000	-0.017620	-13.606783	-101.906864	-21.650247	-101.906864	-21.650247	-0.023169	-18.104934
0.950000	-0.018497	-14.356497	-105.807596	-43.404455	-105.807596	-43.404455	-0.024342	-19.101609
1.000000	-0.019381	-15.105620	-108.835163	-93.092322	-108.835163	-93.092322	-0.025526	-20.097193
1.050000	-0.020272	-15.854163	-106.234501	-130.850589	-106.234501	-130.850589	-0.026719	-21.091729
1.100000	-0.021168	-16.602332	-102.505471	-160.287538	-102.505471	-160.287538	-0.027918	-22.085588
1.150000	-0.022074	-17.349720	-99.355158	-169.433074	-99.355158	-169.433074	-0.029126	-23.078053
1.200000	-0.022985	-18.096581	-97.010042	-176.331524	-97.010042	-176.331524	-0.030339	-24.069587
1.250000	-0.023901	-18.843032	-95.141399	178.517760	-95.141399	178.517760	-0.031556	-25.060396
1.300000	-0.024827	-19.588505	-93.578647	174.537261	-93.578647	174.537261	-0.032780	-26.049493
1.350000	-0.025756	-20.333532	-92.243420	170.756106	-92.243420	170.756106	-0.034007	-27.037816
1.400000	-0.026689	-21.077988	-91.073740	167.231251	-91.073740	167.231251	-0.035237	-28.025144
1.450000	-0.027629	-21.821522	-90.020372	163.882485	-90.020372	163.882485	-0.036471	-29.010877
1.500000	-0.028572	-22.564586	-89.068929	160.587590	-89.068929	160.587590	-0.037706	-29.995798
1.550000	-0.029519	-23.306903	-88.193158	157.355872	-88.193158	157.355872	-0.038945	-30.979431
1.600000	-0.030470	-24.048383	-87.375350	154.153685	-87.375350	154.153685	-0.040186	-31.961622
1.650000	-0.031424	-24.789368	-86.615078	150.963686	-86.615078	150.963686	-0.041428	-32.942963
1.700000	-0.032381	-25.529422	-85.891802	147.783847	-85.891802	147.783847	-0.042673	-33.922702
1.750000	-0.033340	-26.268741	-85.204139	144.602991	-85.204139	144.602991	-0.043920	-34.901181
1.800000	-0.034301	-27.007544	-84.553691	141.420963	-84.553691	141.420963	-0.045169	-35.878775
1.850000	-0.035266	-27.745220	-83.918989	138.230500	-83.918989	138.230500	-0.046420	-36.854436
1.900000	-0.036233	-28.482280	-83.310964	135.033720	-83.310964	135.033720	-0.047674	-37.829045
1.950000	-0.037201	-29.218726	-82.727247	131.830625	-82.727247	131.830625	-0.048929	-38.802602
2.000000	-0.038173	-29.953994	-82.150016	128.614253	-82.150016	128.614253	-0.050188	-39.774148
2.050000	-0.039147	-30.688704	-81.594352	125.391554	-81.594352	125.391554	-0.051449	-40.744741
2.100000	-0.040122	-31.422612	-81.052493	122.159785	-81.052493	122.159785	-0.052713	-41.713968
2.150000	-0.041102	-32.155459	-80.516222	118.916453	-80.516222	118.916453	-0.053981	-42.681392
2.200000	-0.042083	-32.887728	-79.997190	115.667042	-79.997190	115.667042	-0.055252	-43.647835
2.250000	-0.043067	-33.618998	-79.484079	112.407396	-79.484079	112.407396	-0.056527	-44.612587
2.300000	-0.044055	-34.349336	-78.977812	109.138844	-78.977812	109.138844	-0.057806	-45.575766
2.350000	-0.045044	-35.079078	-78.486073	105.864709	-78.486073	105.864709	-0.059089	-46.537941
2.400000	-0.046039	-35.807614	-77.994143	102.579835	-77.994143	102.579835	-0.060379	-47.498087
2.450000	-0.047037	-36.535360	-77.511394	99.288404	-77.511394	99.288404	-0.061673	-48.456914
2.500000	-0.048038	-37.262493	-77.041405	95.991871	-77.041405	95.991871	-0.062971	-49.414715
2.550000	-0.049046	-37.988200	-76.566484	92.684200	-76.566484	92.684200	-0.064279	-50.370146
2.600000	-0.050057	-38.713274	-76.103504	89.371844	-76.103504	89.371844	-0.065592	-51.324529
2.650000	-0.051072	-39.437533	-75.648476	86.053463	-75.648476	86.053463	-0.066910	-52.277566
2.700000	-0.052095	-40.160507	-75.192159	82.726022	-75.192159	82.726022	-0.068239	-53.228490
2.750000	-0.053121	-40.882832	-74.746919	79.394146	-74.746919	79.394146	-0.069574	-54.178353
2.800000	-0.054154	-41.604131	-74.305706	76.055364	-74.305706	76.055364	-0.070918	-55.126545
2.850000	-0.055194	-42.324298	-73.866826	72.709269	-73.866826	72.709269	-0.072272	-56.072902
2.900000	-0.056239	-43.043801	-73.438380	69.358970	-73.438380	69.358970	-0.073633	-57.018186
2.950000	-0.057293	-43.762060	-73.010874	66.001012	-73.010874	66.001012	-0.075006	-57.961471
3.000000	-0.058354	-44.479351	-72.589025	62.637402	-72.589025	62.637402	-0.076390	-58.903214
3.050000	-0.059420	-45.195963	-72.177083	59.269866	-72.177083	59.269866	-0.077781	-59.843876
3.100000	-0.060498	-45.911106	-71.763801	55.894300	-71.763801	55.894300	-0.079189	-60.782217
3.150000	-0.061583	-46.625457	-71.359001	52.514750	-71.359001	52.514750	-0.080607	-61.719318
3.200000	-0.062675	-47.339015	-70.962398	49.131216	-70.962398	49.131216	-0.082035	-62.655178
3.250000	-0.063780	-48.051073	-70.565394	45.740903	-70.565394	45.740903	-0.083482	-63.588712
3.300000	-0.064893	-48.762425	-70.177842	42.347758	-70.177842	42.347758	-0.084939	-64.521160
3.350000	-0.066014	-49.472767	-69.796037	38.950647	-69.796037	38.950647	-0.086409	-65.452057
3.400000	-0.067149	-50.181785	-69.416931	35.549222	-69.416931	35.549222	-0.087899	-66.380941
3.450000	-0.068292	-50.890085	-69.046822	32.145769	-69.046822	32.145769	-0.089399	-67.308743
3.500000	-0.069448	-51.597152	-68.680617	28.739218	-68.680617	28.739218	-0.090917	-68.234692
3.550000	-0.070616	-52.303080	-68.319509	25.330722	-68.319509	25.330722	-0.092454	-69.158948
3.600000	-0.071792	-53.008282	-67.966910	21.921163	-67.966910	21.921163	-0.094002	-70.082129
3.650000	-0.072985	-53.712024	-67.616875	18.510352	-67.616875	18.510352	-0.095575	-71.003167
3.700000	-0.074189	-54.414822	-67.273640	15.099559	-67.273640	15.099559	-0.097163	-71.922835
3.750000	-0.075403	-55.116885	-66.938395	11.688779	-66.938395	11.688779	-0.098765	-72.841438
3.800000	-0.076637	-55.817259	-66.604747	8.279516	-66.604747	8.279516	-0.100396	-73.757625
3.850000	-0.077881	-56.516891	-66.278981	4.871558	-66.278981	4.871558	-0.102041	-74.672763
3.900000	-0.079138	-57.215568	-65.959463	1.465278	-65.959463	1.465278	-0.103705	-75.586553
3.950000	-0.080415	-57.912753	-65.643191	-1.937166	-65.643191	-1.937166	-0.105397	-76.498266
4.000000	-0.081702	-58.609191	-65.334193	-5.337286	-65.334193	-5.337286	-0.107103	-77.408949
4.050000	-0.083006	-59.304452	-65.030020	-8.733500	-65.030020	-8.733500	-0.108834	-78.318019
4.100000	-0.084329	-59.998425	-64.730157	-12.124592	-64.730157	-12.124592	-0.110591	-79.225350
4.150000	-0.085663	-60.691646	-64.436949	-15.512513	-64.436949	-15.512513	-0.112364	-80.131672
4.200000	-0.087018	-61.383469	-64.147343	-18.894098	-64.147343	-18.894098	-0.114168	-81.036137
4.250000	-0.088390	-62.074214	-63.862675	-22.270336	-63.862675	-22.270336	-0.115995	-81.939194
4.300000	-0.089773	-62.764204	-63.584056	-25.642797	-63.584056	-25.642797	-0.117839	-82.841269
4.350000	-0.091184	-63.452574	-63.307909	-29.006742	-63.307909	-29.006742	-0.119720	-83.741266
4.400000	-0.092608	-64.140081	-63.037058	-32.366003	-63.037058	-32.366003	-0.121622	-84.640177
4.450000	-0.094048	-64.826723	-62.771281	-35.720581	-62.771281	-35.720581	-0.123544	-85.537999
4.500000	-0.095515	-65.511744	-62.507659	-39.066345	-62.507659	-39.066345	-0.125506	-86.433824
4.550000	-0.096996	-66.196009	-62.249165	-42.408075	-62.249165	-42.408075	-0.127487	-87.328732
4.600000	-0.098496	-66.879194	-61.994471	-45.744060	-61.994471	-45.744060	-0.129495	-88.222337
4.650000	-0.100023	-67.560976	-61.742289	-49.072939	-61.742289	-49.072939	-0.131539	-89.114286
4.700000	-0.101564	-68.242003	-61.494700	-52.398155	-61.494700	-52.398155	-0.133604	-90.005356
4.750000	-0.103129	-68.921738	-61.249719	-55.717306	-61.249719	-55.717306	-0.135703	-90.894937
4.800000	-0.104718	-69.600289	-61.007547	-59.031482	-61.007547	-59.031482	-0.137834	-91.783188
4.850000	-0.106323	-70.278089	-60.769501	-62.342620	-60.769501	-62.342620	-0.139986	-92.670602
4.900000	-0.107958	-70.954388	-60.532938	-65.648314	-60.532938	-65.648314	-0.142181	-93.556375
4.950000	-0.109613	-71.629724	-60.299502	-68.951151	-60.299502	-68.951151	-0.144404	-94.441127
5.000000	-0.111284	-72.304313	-60.069792	-72.251767	-60.069792	-72.251767	-0.146649	-95.325085
5.050000	-0.112992	-72.977199	-59.840528	-75.548542	-59.840528	-75.548542	-0.148944	-96.207290
5.100000	-0.114718	-73.649342	-59.614759	-78.844201	-59.614759	-78.844201	-0.151263	-97.088757
5.150000	-0.116464	-74.320532	-59.391701	-82.138426	-59.391701	-82.138426	-0.153611	-97.969276
5.200000	-0.118245	-74.990246	-59.169549	-85.431561	-59.169549	-85.431561	-0.156005	-98.848379
5.250000	-0.120044	-75.659224	-58.950623	-88.724551	-58.950623	-88.724551	-0.158424	-99.726797
5.300000	-0.121870	-76.327049	-58.733509	-92.017564	-58.733509	-92.017564	-0.160879	-100.604152
5.350000	-0.123727	-76.993624	-58.517834	-95.311508	-58.517834	-95.311508	-0.163377	-101.480404
5.400000	-0.125603	-77.659471	-58.305182	-98.606202	-58.305182	-98.606202	-0.165899	-102.356027
5.450000	-0.127513	-78.323973	-58.093598	-101.902801	-58.093598	-101.902801	-0.168468	-103.230518
5.500000	-0.129450	-78.987448	-57.884028	-105.201461	-57.884028	-105.201461	-0.171073	-104.104190
5.550000	-0.131406	-79.650205	-57.677334	-108.501611	-57.677334	-108.501611	-0.173703	-104.977294
5.600000	-0.133404	-80.311433	-57.471156	-111.805573	-57.471156	-111.805573	-0.176389	-105.849248
5.650000	-0.135425	-80.971853	-57.267559	-115.111843	-57.267559	-115.111843	-0.179105	-106.720633
5.700000	-0.137468	-81.631465	-57.066476	-118.420422	-57.066476	-118.420422	-0.181852	-107.591450
5.750000	-0.139555	-82.289575	-56.866100	-121.733613	-56.866100	-121.733613	-0.184656	-108.461285
5.800000	-0.141663	-82.946991	-56.668543	-125.048969	-56.668543	-125.048969	-0.187487	-109.330699
5.850000	-0.143801	-83.603416	-56.473015	-128.367418	-56.473015	-128.367418	-0.190358	-110.199519
5.900000	-0.145977	-84.258566	-56.278923	-131.689680	-56.278923	-131.689680	-0.193280	-111.067648
5.950000	-0.148176	-84.913034	-56.087609	-135.013853	-56.087609	-135.013853	-0.196231	-111.935431
6.000000	-0.150411	-85.566338	-55.898024	-138.341124	-55.898024	-138.341124	-0.199231	-112.802654
6.050000	-0.152682	-86.218589	-55.710481	-141.670640	-55.710481	-141.670640	-0.202276	-113.669439
6.100000	-0.154975	-86.870171	-55.525679	-145.001440	-55.525679	-145.001440	-0.205351	-114.535959
6.150000	-0.157312	-87.520429	-55.342464	-148.334079	-55.342464	-148.334079	-0.208484	-115.402019
6.200000	-0.159680	-88.169847	-55.161730	-151.667089	-55.161730	-151.667089	-0.211656	-116.267851
6.250000	-0.162070	-88.818611	-54.983686	-155.000387	-54.983686	-155.000387	-0.214858	-117.133505
6.300000	-0.164514	-89.465902	-54.807194	-158.332646	-54.807194	-158.332646	-0.218130	-117.998876
6.350000	-0.166982	-90.112559	-54.633430	-161.663612	-54.633430	-161.663612	-0.221433	-118.864181
6.400000	-0.169480	-90.758400	-54.462083	-164.992914	-54.462083	-164.992914	-0.224776	-119.729399
6.450000	-0.172027	-91.402990	-54.292673	-168.317800	-54.292673	-168.317800	-0.228182	-120.594603
6.500000	-0.174599	-92.046963	-54.125866	-171.639787	-54.125866	-171.639787	-0.231621	-121.459845
6.550000	-0.177209	-92.689970	-53.961241	-174.956784	-53.961241	-174.956784	-0.235110	-122.325173
6.600000	-0.179863	-93.331941	-53.798705	-178.266636	-53.798705	-178.266636	-0.238656	-123.190710
6.650000	-0.182542	-93.973312	-53.638601	178.428106	-53.638601	178.428106	-0.242235	-124.056399
6.700000	-0.185268	-94.613582	-53.480398	175.132429	-53.480398	175.132429	-0.245877	-124.922444
6.750000	-0.188031	-95.253020	-53.324252	171.845493	-53.324252	171.845493	-0.249567	-125.788870
6.800000	-0.190821	-95.891878	-53.170326	168.564803	-53.170326	168.564803	-0.253292	-126.655573
6.850000	-0.193667	-96.529514	-53.017879	165.299148	-53.017879	165.299148	-0.257092	-127.523016
6.900000	-0.196543	-97.166511	-52.867359	162.042435	-52.867359	162.042435	-0.260933	-128.390950
6.950000	-0.199450	-97.802871	-52.718712	158.794663	-52.718712	158.794663	-0.264815	-129.259377
7.000000	-0.202415	-98.438060	-52.571106	155.565138	-52.571106	155.565138	-0.268776	-130.128921
7.050000	-0.205408	-99.072713	-52.425201	152.344598	-52.425201	152.344598	-0.272774	-130.999071
7.100000	-0.208440	-99.706605	-52.280608	149.137007	-52.280608	149.137007	-0.276827	-131.870107
7.150000	-0.211523	-100.339530	-52.136735	145.946967	-52.136735	145.946967	-0.280952	-132.742494
7.200000	-0.214635	-100.971942	-51.994248	142.766496	-51.994248	142.766496	-0.285117	-133.615674
7.250000	-0.217795	-101.603484	-51.852335	139.602578	-51.852335	139.602578	-0.289351	-134.490302
7.300000	-0.221000	-102.234251	-51.710891	136.453851	-51.710891	136.453851	-0.293651	-135.366459
7.350000	-0.224234	-102.864529	-51.570529	133.314736	-51.570529	133.314736	-0.297993	-136.243629
7.400000	-0.227526	-103.493847	-51.429822	130.194565	-51.429822	130.194565	-0.302423	-137.123032
7.450000	-0.230856	-104.122568	-51.289497	127.086049	-51.289497	127.086049	-0.306911	-138.004076
7.500000	-0.234215	-104.750824	-51.149979	123.986599	-51.149979	123.986599	-0.311446	-138.886395
7.550000	-0.237652	-105.377883	-51.008402	120.909427	-51.008402	120.909427	-0.316109	-139.772658
7.600000	-0.241091	-106.004942	-50.869095	117.832256	-50.869095	117.832256	-0.320775	-140.658920
7.650000	-0.244613	-106.630799	-50.727081	114.775391	-50.727081	114.775391	-0.325586	-141.550040
7.700000	-0.248143	-107.256547	-50.586913	111.720373	-50.586913	111.720373	-0.330413	-142.441602
7.750000	-0.251751	-107.881255	-50.444140	108.679944	-50.444140	108.679944	-0.335388	-143.338446
7.800000	-0.255374	-108.505755	-50.302726	105.642433	-50.302726	105.642433	-0.340394	-144.236346
7.850000	-0.259068	-109.129368	-50.159006	102.613812	-50.159006	102.613812	-0.345552	-145.139967
7.900000	-0.262786	-109.752686	-50.016128	99.588155	-50.016128	99.588155	-0.350764	-146.045493
7.950000	-0.266551	-110.375440	-49.872483	96.565758	-49.872483	96.565758	-0.356091	-146.955491
8.000000	-0.270371	-110.997575	-49.727742	93.545594	-49.727742	93.545594	-0.361559	-147.870916
8.050000	-0.274237	-111.619201	-49.582493	90.525316	-49.582493	90.525316	-0.367162	-148.791565
8.100000	-0.278149	-112.240336	-49.436844	87.503287	-49.436844	87.503287	-0.372913	-149.718004
8.150000	-0.282108	-112.860995	-49.290944	84.477887	-49.290944	84.477887	-0.378832	-150.650887
8.200000	-0.286115	-113.481195	-49.144989	81.447554	-49.144989	81.447554	-0.384941	-151.590977
8.250000	-0.290169	-114.100952	-48.999223	78.410837	-48.999223	78.410837	-0.391268	-152.539167
8.300000	-0.294270	-114.720283	-48.853944	75.366472	-48.853944	75.366472	-0.397847	-153.496515
8.350000	-0.298420	-115.339206	-48.709508	72.313466	-48.709508	72.313466	-0.404725	-154.464286
8.400000	-0.302618	-115.957738	-48.566333	69.251221	-48.566333	69.251221	-0.411957	-155.444007
8.450000	-0.306864	-116.575896	-48.424899	66.179680	-48.424899	66.179680	-0.419619	-156.437544
8.500000	-0.311159	-117.193698	-48.285753	63.099538	-48.285753	63.099538	-0.427811	-157.447198
8.550000	-0.315503	-117.811161	-48.149502	60.012502	-48.149502	60.012502	-0.436665	-158.475852
8.600000	-0.319897	-118.428305	-48.016807	56.921661	-48.016807	56.921661	-0.446366	-159.527166
8.650000	-0.324340	-119.045146	-47.888363	53.831985	-47.888363	53.831985	-0.457166	-160.605862
8.700000	-0.328833	-119.661704	-47.764864	50.751031	-47.764864	50.751031	-0.469432	-161.718141
8.750000	-0.333376	-120.277998	-47.646938	47.689966	-47.646938	47.689966	-0.483699	-162.872303
8.800000	-0.337971	-120.894038	-47.535174	44.667304	-47.535174	44.667304	-0.500919	-164.082146
8.850000	-0.342616	-121.509852	-47.429365	41.707279	-47.429365	41.707279	-0.522375	-165.362961
8.900000	-0.347313	-122.125460	-47.328418	38.846949	-47.328418	38.846949	-0.550313	-166.739175
8.950000	-0.352062	-122.740880	-47.229061	36.142323	-47.229061	36.142323	-0.588699	-168.247750
9.000000	-0.356861	-123.356136	-47.123797	33.669880	-47.123797	33.669880	-0.644221	-169.939304
9.050000	-0.361714	-123.971240	-46.993255	31.573504	-46.993255	31.573504	-0.732794	-171.915955
9.100000	-0.366620	-124.586214	-46.788981	30.040959	-46.788981	30.040959	-0.889132	-174.327612
9.150000	-0.371580	-125.201079	-46.382788	29.200793	-46.382788	29.200793	-1.204513	-177.380189
9.200000	-0.376598	-125.815857	-45.465057	28.061911	-45.465057	28.061911	-1.947879	179.092254
9.250000	-0.381683	-126.430564	-43.935418	20.178692	-43.935418	20.178692	-3.704309	-179.966301
9.300000	-0.386861	-127.044272	-43.897910	3.643576	-43.897910	3.643576	-4.189863	-162.237019
9.350000	-0.391912	-127.659550	-45.107746	-4.572028	-45.107746	-4.572028	-2.262810	-157.805973
9.400000	-0.397162	-128.274241	-45.957216	-7.389425	-45.957216	-7.389425	-1.350101	-161.222306
9.450000	-0.402462	-128.888853	-46.480465	-9.028531	-46.480465	-9.028531	-0.985612	-164.524124
9.500000	-0.407823	-129.503464	-46.844567	-10.377481	-46.844567	-10.377481	-0.820888	-167.164233
9.550000	-0.413248	-130.118099	-47.132135	-11.488820	-47.132135	-11.488820	-0.737441	-169.361900
9.600000	-0.418742	-130.732780	-47.370211	-12.220526	-47.370211	-12.220526	-0.695250	-171.280225
9.650000	-0.424313	-131.347526	-47.558448	-12.375539	-47.558448	-12.375539	-0.677027	-173.036773
9.700000	-0.429969	-131.962360	-47.673309	-11.774396	-47.673309	-11.774396	-0.675843	-174.712996
9.750000	-0.435721	-132.577317	-47.657343	-10.229566	-47.657343	-10.229566	-0.691857	-176.363233
9.800000	-0.441593	-133.192471	-47.402460	-7.676602	-47.402460	-7.676602	-0.731469	-178.033860
9.850000	-0.447608	-133.807959	-46.755460	-4.532399	-46.755460	-4.532399	-0.810112	-179.748908
9.900000	-0.453800	-134.424070	-45.543885	-2.135188	-45.543885	-2.135188	-0.960873	178.563999
9.950000	-0.460192	-135.041367	-43.721961	-3.115008	-43.721961	-3.115008	-1.226912	177.338109
10.000000	-0.466748	-135.660779	-41.597434	-10.939417	-41.597434	-10.939417	-1.548194	177.652025
