! freq	dB(S11)	phase(S11)	dB(S12)	phase(S12)	
!     	dB(S21)	phase(S21)	dB(S22)	phase(S22)	
!S-par simulation data
#  GHz  S  DB  R 50
0.000000	-0.000000	0.000000	-389.531028	180.000000	-389.531028	180.000000	-0.000000	0.000000
0.050000	-0.000094	-0.760806	-86.709672	-1.529932	-86.709672	-1.529932	-0.000093	-0.760784
0.100000	-0.000372	-1.521400	-86.701716	1.512077	-86.701716	1.512077	-0.000370	-1.521357
0.150000	-0.000828	-2.281564	-86.703960	3.483276	-86.703960	3.483276	-0.000825	-2.281503
0.200000	-0.001437	-3.041167	-86.711562	5.148963	-86.711562	5.148963	-0.001432	-3.041091
0.250000	-0.002186	-3.800052	-86.726485	6.632348	-86.726485	6.632348	-0.002179	-3.799965
0.300000	-0.003065	-4.558019	-86.752994	7.959178	-86.752994	7.959178	-0.003056	-4.557925
0.350000	-0.004034	-5.315136	-86.792916	9.164693	-86.792916	9.164693	-0.004022	-5.315039
0.400000	-0.005085	-6.071223	-86.852638	10.232928	-86.852638	10.232928	-0.005072	-6.071126
0.450000	-0.006193	-6.826343	-86.935333	11.177130	-86.935333	11.177130	-0.006178	-6.826248
0.500000	-0.007341	-7.580452	-87.047145	11.993385	-87.047145	11.993385	-0.007325	-7.580362
0.550000	-0.008514	-8.333574	-87.193780	12.685088	-87.193780	12.685088	-0.008497	-8.333489
0.600000	-0.009700	-9.085733	-87.381825	13.255649	-87.381825	13.255649	-0.009682	-9.085655
0.650000	-0.010887	-9.836964	-87.618810	13.709432	-87.618810	13.709432	-0.010869	-9.836891
0.700000	-0.012067	-10.587301	-87.913570	14.051568	-87.913570	14.051568	-0.012050	-10.587234
0.750000	-0.013235	-11.336781	-88.276769	14.287730	-88.276769	14.287730	-0.013219	-11.336718
0.800000	-0.014387	-12.085438	-88.721706	14.423913	-88.721706	14.423913	-0.014371	-12.085378
0.850000	-0.015515	-12.833172	-89.279955	14.451716	-89.279955	14.451716	-0.015500	-12.833114
0.900000	-0.016622	-13.580108	-89.966367	14.388086	-89.966367	14.388086	-0.016608	-13.580050
0.950000	-0.017718	-14.326661	-90.765340	14.283823	-90.765340	14.283823	-0.017705	-14.326603
1.000000	-0.018781	-15.072069	-91.825765	14.057662	-91.825765	14.057662	-0.018769	-15.072008
1.050000	-0.019837	-15.817230	-93.084444	13.807238	-93.084444	13.807238	-0.019827	-15.817166
1.100000	-0.020860	-16.561157	-94.862566	13.435499	-94.862566	13.435499	-0.020851	-16.561088
1.150000	-0.021881	-17.304962	-97.143823	13.045673	-97.143823	13.045673	-0.021873	-17.304887
1.200000	-0.022870	-18.047419	-100.950083	12.456887	-100.950083	12.456887	-0.022863	-18.047337
1.250000	-0.023859	-18.789876	-107.884546	11.868100	-107.884546	11.868100	-0.023854	-18.789787
1.300000	-0.024828	-19.531220	-114.596124	-160.359949	-114.596124	-160.359949	-0.024823	-19.531123
1.350000	-0.025786	-20.271843	-102.455417	-168.672197	-102.455417	-168.672197	-0.025782	-20.271737
1.400000	-0.026734	-21.011733	-97.098955	-169.413047	-97.098955	-169.413047	-0.026731	-21.011618
1.450000	-0.027675	-21.750879	-93.626145	-170.103804	-93.626145	-170.103804	-0.027672	-21.750755
1.500000	-0.028609	-22.489267	-91.014145	-170.808939	-91.014145	-170.808939	-0.028607	-22.489134
1.550000	-0.029538	-23.226884	-88.899476	-171.536429	-88.899476	-171.536429	-0.029536	-23.226741
1.600000	-0.030463	-23.963712	-87.110331	-172.287522	-87.110331	-172.287522	-0.030462	-23.963560
1.650000	-0.031385	-24.699738	-85.551687	-173.061690	-85.551687	-173.061690	-0.031385	-24.699575
1.700000	-0.032306	-25.434649	-84.142494	-173.864892	-84.142494	-173.864892	-0.032305	-25.434477
1.750000	-0.033226	-26.169127	-82.900765	-174.679134	-82.900765	-174.679134	-0.033226	-26.168945
1.800000	-0.034147	-26.902555	-81.752999	-175.516495	-81.752999	-175.516495	-0.034147	-26.902364
1.850000	-0.035068	-27.635235	-80.700452	-176.370371	-80.700452	-176.370371	-0.035068	-27.635035
1.900000	-0.035992	-28.366977	-79.719282	-177.241637	-79.719282	-177.241637	-0.035992	-28.366768
1.950000	-0.036918	-29.097782	-78.799565	-178.130293	-78.799565	-178.130293	-0.036917	-29.097564
2.000000	-0.037846	-29.827774	-77.938593	-179.031773	-77.938593	-179.031773	-0.037846	-29.827548
2.050000	-0.038779	-30.556629	-77.117876	-179.951208	-77.117876	-179.951208	-0.038778	-30.556394
2.100000	-0.039714	-31.284808	-76.348099	179.120164	-76.348099	179.120164	-0.039714	-31.284566
2.150000	-0.040656	-32.011638	-75.604349	178.173148	-75.604349	178.173148	-0.040655	-32.011388
2.200000	-0.041600	-32.737943	-74.906343	177.219861	-74.906343	177.219861	-0.041599	-32.737685
2.250000	-0.042552	-33.462675	-74.224322	176.247761	-74.224322	176.247761	-0.042551	-33.462410
2.300000	-0.043506	-34.187046	-73.584391	175.271800	-73.584391	175.271800	-0.043506	-34.186774
2.350000	-0.044471	-34.909611	-72.953063	174.276534	-72.953063	174.276534	-0.044470	-34.909333
2.400000	-0.045436	-35.631990	-72.361151	173.279458	-72.361151	173.279458	-0.045435	-35.631706
2.450000	-0.046413	-36.352322	-71.772226	172.262468	-71.772226	172.262468	-0.046412	-36.352031
2.500000	-0.047391	-37.072653	-71.220708	171.245478	-71.220708	171.245478	-0.047390	-37.072357
2.550000	-0.048383	-37.790688	-70.667775	170.207820	-70.667775	170.207820	-0.048381	-37.790386
2.600000	-0.049375	-38.508723	-70.147944	169.170161	-70.147944	169.170161	-0.049373	-38.508415
2.650000	-0.050380	-39.224598	-69.628699	168.114238	-69.628699	168.114238	-0.050378	-39.224284
2.700000	-0.051387	-39.940276	-69.136283	167.056655	-69.136283	167.056655	-0.051385	-39.939957
2.750000	-0.052407	-40.653944	-68.646179	165.982881	-68.646179	165.982881	-0.052405	-40.653620
2.800000	-0.053430	-41.367210	-68.177695	164.905870	-68.177695	164.905870	-0.053428	-41.366880
2.850000	-0.054465	-42.078626	-67.713032	163.814511	-67.713032	163.814511	-0.054463	-42.078292
2.900000	-0.055504	-42.789427	-67.265594	162.718371	-67.265594	162.718371	-0.055502	-42.789087
2.950000	-0.056554	-43.498551	-66.823321	161.609574	-66.823321	161.609574	-0.056552	-43.498207
3.000000	-0.057611	-44.206838	-66.394511	160.494450	-66.394511	160.494450	-0.057609	-44.206488
3.050000	-0.058678	-44.913631	-65.972083	159.368266	-65.972083	159.368266	-0.058676	-44.913277
3.100000	-0.059752	-45.619358	-65.559856	158.234183	-65.559856	158.234183	-0.059750	-45.618999
3.150000	-0.060836	-46.323785	-65.155128	157.090589	-65.155128	157.090589	-0.060834	-46.323421
3.200000	-0.061929	-47.026911	-64.757741	155.937483	-64.757741	155.937483	-0.061927	-47.026542
3.250000	-0.063031	-47.728937	-64.368892	154.776396	-64.368892	154.776396	-0.063029	-47.728564
3.300000	-0.064144	-48.429424	-63.984850	153.604137	-63.984850	153.604137	-0.064142	-48.429047
3.350000	-0.065263	-49.129020	-63.610321	152.425435	-63.610321	152.425435	-0.065261	-49.128638
3.400000	-0.066396	-49.826833	-63.238337	151.233846	-63.238337	151.233846	-0.066395	-49.826446
3.450000	-0.067535	-50.523970	-62.876791	150.037375	-62.876791	150.037375	-0.067533	-50.523578
3.500000	-0.068689	-51.219078	-62.515754	148.826255	-62.515754	148.826255	-0.068688	-51.218682
3.550000	-0.069848	-51.913731	-62.166033	147.611843	-62.166033	147.611843	-0.069846	-51.913330
3.600000	-0.071025	-52.606106	-61.814984	146.380976	-61.814984	146.380976	-0.071023	-52.605701
3.650000	-0.072203	-53.298252	-61.476088	145.148446	-61.476088	145.148446	-0.072202	-53.297842
3.700000	-0.073404	-53.987870	-61.134198	143.897619	-61.134198	143.897619	-0.073402	-53.987455
3.750000	-0.074604	-54.677488	-60.805257	142.646792	-60.805257	142.646792	-0.074603	-54.677068
3.800000	-0.075829	-55.364326	-60.471813	141.375809	-60.471813	141.375809	-0.075828	-55.363902
3.850000	-0.077054	-56.051165	-60.150698	140.104826	-60.150698	140.104826	-0.077053	-56.050736
3.900000	-0.078303	-56.735439	-59.826463	138.815210	-59.826463	138.815210	-0.078301	-56.735006
3.950000	-0.079554	-57.419481	-59.512621	137.523901	-59.512621	137.523901	-0.079552	-57.419043
4.000000	-0.080827	-58.101178	-59.196972	136.215546	-59.196972	136.215546	-0.080826	-58.100735
4.050000	-0.082105	-58.782406	-58.889932	134.903782	-58.889932	134.903782	-0.082104	-58.781959
4.100000	-0.083404	-59.461515	-58.582331	133.576619	-58.582331	133.576619	-0.083403	-59.461064
4.150000	-0.084711	-60.139918	-58.281696	132.244323	-58.281696	132.244323	-0.084710	-60.139462
4.200000	-0.086038	-60.816430	-57.981680	130.898330	-57.981680	130.898330	-0.086036	-60.815970
4.250000	-0.087374	-61.491998	-57.687121	129.545489	-57.687121	129.545489	-0.087373	-61.491533
4.300000	-0.088729	-62.165907	-57.394295	128.180700	-57.394295	128.180700	-0.088728	-62.165439
4.350000	-0.090098	-62.838632	-57.105542	126.807377	-57.105542	126.807377	-0.090096	-62.838160
4.400000	-0.091482	-63.509934	-56.819569	125.423889	-56.819569	125.423889	-0.091481	-63.509457
4.450000	-0.092884	-64.179812	-56.536409	124.030237	-56.536409	124.030237	-0.092882	-64.179332
4.500000	-0.094300	-64.848503	-56.257003	122.628218	-56.257003	122.628218	-0.094298	-64.848019
4.550000	-0.095736	-65.515532	-55.979273	121.214488	-55.979273	121.214488	-0.095734	-65.515045
4.600000	-0.097185	-66.181612	-55.706196	119.794187	-55.706196	119.794187	-0.097183	-66.181121
4.650000	-0.098658	-66.845793	-55.433777	118.360744	-55.433777	118.360744	-0.098655	-66.845299
4.700000	-0.100141	-67.509263	-55.166827	116.922496	-55.166827	116.922496	-0.100138	-67.508766
4.750000	-0.101652	-68.170598	-54.899641	115.469829	-54.899641	115.469829	-0.101649	-68.170099
4.800000	-0.103170	-68.831461	-54.638653	114.014063	-54.638653	114.014063	-0.103167	-68.830958
4.850000	-0.104722	-69.489956	-54.376656	112.542795	-54.376656	112.542795	-0.104719	-69.489451
4.900000	-0.106277	-70.148215	-54.121495	111.070041	-54.121495	111.070041	-0.106274	-70.147708
4.950000	-0.107871	-70.803878	-53.864673	109.580937	-53.864673	109.580937	-0.107868	-70.803369
5.000000	-0.109465	-71.459540	-53.615227	108.091834	-53.615227	108.091834	-0.109461	-71.459029
5.050000	-0.111103	-72.112379	-53.363591	106.585810	-53.363591	106.585810	-0.111099	-72.111867
5.100000	-0.112741	-72.765218	-53.119040	105.079786	-53.119040	105.079786	-0.112737	-72.764704
5.150000	-0.114421	-73.415479	-52.873349	103.559231	-52.873349	103.559231	-0.114417	-73.414965
5.200000	-0.116105	-74.065506	-52.633724	102.037356	-52.633724	102.037356	-0.116100	-74.064991
5.250000	-0.117829	-74.713200	-52.393916	100.503292	-52.393916	100.503292	-0.117824	-74.712685
5.300000	-0.119561	-75.360429	-52.159262	98.966790	-52.159262	98.966790	-0.119556	-75.359913
5.350000	-0.121330	-76.005570	-51.925280	97.420351	-51.925280	97.420351	-0.121325	-76.005054
5.400000	-0.123112	-76.650015	-51.695649	95.870601	-51.695649	95.870601	-0.123106	-76.649499
5.450000	-0.124928	-77.292616	-51.467440	94.313035	-51.467440	94.313035	-0.124922	-77.292101
5.500000	-0.126762	-77.934295	-51.242884	92.751562	-51.242884	92.751562	-0.126756	-77.933781
5.550000	-0.128627	-78.574371	-51.020395	91.184220	-51.020395	91.184220	-0.128621	-78.573859
5.600000	-0.130514	-79.213303	-50.800962	89.612685	-50.800962	89.612685	-0.130508	-79.212792
5.650000	-0.132430	-79.850872	-50.584137	88.037013	-50.584137	88.037013	-0.132424	-79.850362
5.700000	-0.134373	-80.487077	-50.369864	86.457202	-50.369864	86.457202	-0.134367	-80.486570
5.750000	-0.136341	-81.122156	-50.158640	84.874729	-50.158640	84.874729	-0.136334	-81.121651
5.800000	-0.138342	-81.755657	-49.949549	83.288529	-49.949549	83.288529	-0.138335	-81.755155
5.850000	-0.140363	-82.388265	-49.743854	81.700855	-49.743854	81.700855	-0.140357	-82.387765
5.900000	-0.142424	-83.019086	-49.539948	80.110233	-49.539948	80.110233	-0.142418	-83.018589
5.950000	-0.144501	-83.649243	-49.339696	78.519011	-49.339696	78.519011	-0.144494	-83.648749
6.000000	-0.146623	-84.277409	-49.140955	76.925989	-49.140955	76.925989	-0.146617	-84.276919
6.050000	-0.148757	-84.905136	-48.946048	75.332907	-48.946048	75.332907	-0.148750	-84.904650
6.100000	-0.150943	-85.530674	-48.752425	73.739529	-48.752425	73.739529	-0.150937	-85.530192
6.150000	-0.153135	-86.155994	-48.562749	72.146291	-48.562749	72.146291	-0.153129	-86.155517
6.200000	-0.155387	-86.778931	-48.374166	70.554595	-48.374166	70.554595	-0.155381	-86.778459
6.250000	-0.157640	-87.401869	-48.189591	68.962899	-48.189591	68.962899	-0.157633	-87.401401
6.300000	-0.159959	-88.022235	-48.005942	67.374883	-48.005942	67.374883	-0.159953	-88.021772
6.350000	-0.162279	-88.642602	-47.826095	65.786867	-47.826095	65.786867	-0.162273	-88.642144
6.400000	-0.164661	-89.260640	-47.647467	64.203990	-47.647467	64.203990	-0.164655	-89.260188
6.450000	-0.167050	-89.878466	-47.472221	62.621581	-47.472221	62.621581	-0.167045	-89.878020
6.500000	-0.169498	-90.494203	-47.298407	61.045363	-47.298407	61.045363	-0.169493	-90.493763
6.550000	-0.171958	-91.109521	-47.127604	59.470383	-47.127604	59.470383	-0.171953	-91.109088
6.600000	-0.174473	-91.722984	-46.958383	57.902245	-46.958383	57.902245	-0.174468	-91.722557
6.650000	-0.177006	-92.335828	-46.791837	56.336388	-46.791837	56.336388	-0.177001	-92.335407
6.700000	-0.179588	-92.947044	-46.626973	54.777635	-46.626973	54.777635	-0.179584	-92.946631
6.750000	-0.182196	-93.557448	-46.464469	53.222433	-46.464469	53.222433	-0.182192	-93.557042
6.800000	-0.184848	-94.166448	-46.303713	51.674238	-46.303713	51.674238	-0.184844	-94.166050
6.850000	-0.187532	-94.774446	-46.145012	50.131047	-46.145012	50.131047	-0.187528	-94.774056
6.900000	-0.190255	-95.381260	-45.988105	48.594438	-45.988105	48.594438	-0.190251	-95.380878
6.950000	-0.193017	-95.986890	-45.832948	47.064412	-45.832948	47.064412	-0.193014	-95.986516
7.000000	-0.195812	-96.591548	-45.679621	45.540263	-45.679621	45.540263	-0.195809	-96.591183
7.050000	-0.198653	-97.194847	-45.527728	44.024344	-45.527728	44.024344	-0.198651	-97.194491
7.100000	-0.201522	-97.797381	-45.377707	42.513367	-45.377707	42.513367	-0.201520	-97.797034
7.150000	-0.204444	-98.398386	-45.228784	41.012273	-45.228784	41.012273	-0.204442	-98.398049
7.200000	-0.207388	-98.998828	-45.081791	39.515007	-45.081791	39.515007	-0.207386	-98.998501
7.250000	-0.210393	-99.597580	-44.935533	38.029227	-44.935533	38.029227	-0.210392	-99.597264
7.300000	-0.213413	-100.195963	-44.791287	36.546042	-44.791287	36.546042	-0.213412	-100.195657
7.350000	-0.216502	-100.792501	-44.647382	35.075830	-44.647382	35.075830	-0.216501	-100.792207
7.400000	-0.219599	-101.388859	-44.505603	33.606918	-44.505603	33.606918	-0.219598	-101.388576
7.450000	-0.222774	-101.983225	-44.363732	32.152298	-44.363732	32.152298	-0.222773	-101.982954
7.500000	-0.225949	-102.577590	-44.224141	30.697678	-44.224141	30.697678	-0.225949	-102.577332
7.550000	-0.229211	-103.169825	-44.083986	29.258441	-44.083986	29.258441	-0.229211	-103.169581
7.600000	-0.232474	-103.762060	-43.946057	27.819203	-43.946057	27.819203	-0.232474	-103.761829
7.650000	-0.235816	-104.352381	-43.807554	26.393668	-43.807554	26.393668	-0.235816	-104.352164
7.700000	-0.239167	-104.942527	-43.670980	24.969379	-43.670980	24.969379	-0.239167	-104.942326
7.750000	-0.242592	-105.530970	-43.533852	23.556999	-43.533852	23.556999	-0.242591	-105.530784
7.800000	-0.246032	-106.119071	-43.398331	22.147001	-43.398331	22.147001	-0.246032	-106.118901
7.850000	-0.249540	-106.705671	-43.262314	20.747068	-43.262314	20.747068	-0.249539	-106.705519
7.900000	-0.253071	-107.291771	-43.127548	19.350490	-43.127548	19.350490	-0.253070	-107.291637
7.950000	-0.256663	-107.876567	-42.992387	17.962137	-42.992387	17.962137	-0.256661	-107.876452
8.000000	-0.260285	-108.460709	-42.858089	16.577896	-42.858089	16.577896	-0.260284	-108.460614
8.050000	-0.263962	-109.043737	-42.723542	15.200101	-42.723542	15.200101	-0.263960	-109.043663
8.100000	-0.267678	-109.625968	-42.589433	13.826911	-42.589433	13.826911	-0.267676	-109.625916
8.150000	-0.271441	-110.207266	-42.455270	12.458502	-42.455270	12.458502	-0.271438	-110.207237
8.200000	-0.275251	-110.787630	-42.321085	11.094874	-42.321085	11.094874	-0.275247	-110.787626
8.250000	-0.279101	-111.367236	-42.187089	9.734528	-42.187089	9.734528	-0.279096	-111.367258
8.300000	-0.283006	-111.945781	-42.052575	8.378777	-42.052575	8.378777	-0.283000	-111.945830
8.350000	-0.286943	-112.523734	-41.918545	7.025024	-41.918545	7.025024	-0.286936	-112.523811
8.400000	-0.290944	-113.100504	-41.783465	5.675268	-41.783465	5.675268	-0.290936	-113.100612
8.450000	-0.294970	-113.676843	-41.649214	4.326490	-41.649214	4.326490	-0.294961	-113.676982
8.500000	-0.299068	-114.251886	-41.513348	2.980648	-41.513348	2.980648	-0.299058	-114.252060
8.550000	-0.303183	-114.826650	-41.378708	1.635079	-41.378708	1.635079	-0.303172	-114.826859
8.600000	-0.307379	-115.400015	-41.241854	0.290874	-41.241854	0.290874	-0.307365	-115.400262
8.650000	-0.311584	-115.973243	-41.106671	-1.053402	-41.106671	-1.053402	-0.311569	-115.973529
8.700000	-0.315878	-116.544976	-40.968651	-2.398453	-40.968651	-2.398453	-0.315862	-116.545304
8.750000	-0.320175	-117.116709	-40.832791	-3.743504	-40.832791	-3.743504	-0.320156	-117.117080
8.800000	-0.324568	-117.686858	-40.693450	-5.092092	-40.693450	-5.092092	-0.324547	-117.687277
8.850000	-0.328964	-118.257007	-40.556309	-6.440681	-40.556309	-6.440681	-0.328941	-118.257474
8.900000	-0.333449	-118.825750	-40.416008	-7.795175	-40.416008	-7.795175	-0.333424	-118.826269
8.950000	-0.337945	-119.394364	-40.277465	-9.150207	-40.277465	-9.150207	-0.337917	-119.394936
9.000000	-0.342523	-119.961740	-40.136139	-10.513216	-40.136139	-10.513216	-0.342493	-119.962371
9.050000	-0.347120	-120.528868	-39.996102	-11.877822	-39.996102	-11.877822	-0.347087	-120.529558
9.100000	-0.351791	-121.094918	-39.853716	-13.252128	-39.853716	-13.252128	-0.351756	-121.095673
9.150000	-0.356489	-121.660609	-39.712128	-14.629668	-39.712128	-14.629668	-0.356451	-121.661429
9.200000	-0.361254	-122.225374	-39.568680	-16.018232	-39.568680	-16.018232	-0.361213	-122.226266
9.250000	-0.366054	-122.789677	-39.425530	-17.412306	-39.425530	-17.412306	-0.366010	-122.790642
9.300000	-0.370913	-123.353199	-39.281054	-18.818267	-39.281054	-18.818267	-0.370866	-123.354242
9.350000	-0.375816	-123.916163	-39.136379	-20.232718	-39.136379	-20.232718	-0.375765	-123.917287
9.400000	-0.380770	-124.478482	-38.990952	-21.659398	-38.990952	-21.659398	-0.380715	-124.479693
9.450000	-0.385775	-125.040157	-38.844850	-23.098309	-38.844850	-23.098309	-0.385717	-125.041458
9.500000	-0.390824	-125.601315	-38.698598	-24.549211	-38.698598	-24.549211	-0.390763	-125.602710
9.550000	-0.395933	-126.161751	-38.551234	-26.016900	-38.551234	-26.016900	-0.395868	-126.163245
9.600000	-0.401077	-126.721789	-38.404337	-27.495694	-38.404337	-27.495694	-0.401008	-126.723387
9.650000	-0.406290	-127.281035	-38.255963	-28.996698	-38.255963	-28.996698	-0.406217	-127.282742
9.700000	-0.411530	-127.839996	-38.108661	-30.507210	-38.108661	-30.507210	-0.411453	-127.841815
9.750000	-0.416847	-128.398101	-37.959626	-32.046246	-37.959626	-32.046246	-0.416766	-128.400042
9.800000	-0.422184	-128.956025	-37.812231	-33.592430	-37.812231	-33.592430	-0.422099	-128.958089
9.850000	-0.427605	-129.513040	-37.662998	-35.174349	-37.662998	-35.174349	-0.427516	-129.515237
9.900000	-0.433038	-130.069969	-37.515899	-36.760249	-37.515899	-36.760249	-0.432944	-130.072300
9.950000	-0.438564	-130.625944	-37.367066	-38.389946	-37.367066	-38.389946	-0.438466	-130.628421
10.000000	-0.444093	-131.181920	-37.220740	-40.019644	-37.220740	-40.019644	-0.443992	-131.184542
