! freq	dB(S11)	phase(S11)	dB(S12)	phase(S12)	
!     	dB(S21)	phase(S21)	dB(S22)	phase(S22)	
!S-par simulation data
#  GHz  S  DB  R 50
0.000000	-0.000000	0.000000	-356.848333	0.000000	-356.848333	0.000000	-0.000000	0.000000
0.050000	-0.000060	-0.760135	-92.808714	3.485020	-92.808714	3.485020	-0.000060	-0.760149
0.100000	-0.000239	-1.520178	-92.837983	3.696999	-92.837983	3.696999	-0.000239	-1.520205
0.150000	-0.000537	-2.280030	-92.895412	4.634407	-92.895412	4.634407	-0.000537	-2.280070
0.200000	-0.000942	-3.039626	-92.977287	5.740434	-92.977287	5.740434	-0.000942	-3.039678
0.250000	-0.001452	-3.798880	-93.085907	6.913893	-93.085907	6.913893	-0.001452	-3.798944
0.300000	-0.002070	-4.557674	-93.226682	8.119829	-93.226682	8.119829	-0.002071	-4.557751
0.350000	-0.002773	-5.316017	-93.398212	9.340469	-93.398212	9.340469	-0.002774	-5.316105
0.400000	-0.003566	-6.073779	-93.609367	10.575058	-93.609367	10.575058	-0.003566	-6.073876
0.450000	-0.004432	-6.830954	-93.862725	11.825220	-93.862725	11.825220	-0.004433	-6.831062
0.500000	-0.005367	-7.587475	-94.166788	13.100142	-94.166788	13.100142	-0.005367	-7.587591
0.550000	-0.006361	-8.343307	-94.530171	14.414995	-94.530171	14.414995	-0.006361	-8.343431
0.600000	-0.007405	-9.098418	-94.964255	15.793879	-94.964255	15.793879	-0.007405	-9.098550
0.650000	-0.008492	-9.852784	-95.483838	17.273813	-95.483838	17.273813	-0.008492	-9.852923
0.700000	-0.009613	-10.606385	-96.108575	18.912138	-96.108575	18.912138	-0.009613	-10.606530
0.750000	-0.010761	-11.359205	-96.865243	20.800309	-96.865243	20.800309	-0.010762	-11.359356
0.800000	-0.011930	-12.111235	-97.791419	23.091246	-97.791419	23.091246	-0.011931	-12.111391
0.850000	-0.013115	-12.862326	-98.958998	26.373773	-98.958998	26.373773	-0.013116	-12.862487
0.900000	-0.014309	-13.612579	-100.442696	30.943764	-100.442696	30.943764	-0.014310	-13.612745
0.950000	-0.015504	-14.362410	-102.245345	38.038707	-102.245345	38.038707	-0.015505	-14.362581
1.000000	-0.016702	-15.110978	-104.570598	52.708501	-104.570598	52.708501	-0.016702	-15.111153
1.050000	-0.017897	-15.859263	-107.028898	71.123518	-107.028898	71.123518	-0.017898	-15.859443
1.100000	-0.019084	-16.606141	-106.408125	108.264650	-106.408125	108.264650	-0.019084	-16.606326
1.150000	-0.020269	-17.352878	-105.464680	143.401844	-105.464680	143.401844	-0.020269	-17.353067
1.200000	-0.021435	-18.098063	-101.632898	156.495735	-101.632898	156.495735	-0.021435	-18.098257
1.250000	-0.022601	-18.843248	-98.983197	169.589626	-98.983197	169.589626	-0.022602	-18.843447
1.300000	-0.023748	-19.587159	-96.497801	174.354720	-96.497801	174.354720	-0.023749	-19.587363
1.350000	-0.024882	-20.330252	-94.392909	177.354121	-94.392909	177.354121	-0.024883	-20.330462
1.400000	-0.026003	-21.072523	-92.561707	179.338565	-92.561707	179.338565	-0.026004	-21.072739
1.450000	-0.027110	-21.813968	-90.934125	-179.314994	-90.934125	-179.314994	-0.027111	-21.814189
1.500000	-0.028204	-22.554580	-89.463133	-178.399855	-89.463133	-178.399855	-0.028205	-22.554808
1.550000	-0.029285	-23.294354	-88.116083	-177.794042	-88.116083	-177.794042	-0.029286	-23.294588
1.600000	-0.030353	-24.033281	-86.869555	-177.421100	-86.869555	-177.421100	-0.030353	-24.033521
1.650000	-0.031408	-24.771353	-85.706256	-177.230662	-85.706256	-177.230662	-0.031409	-24.771600
1.700000	-0.032448	-25.508256	-84.588425	-177.228253	-84.588425	-177.228253	-0.032449	-25.508510
1.750000	-0.033483	-26.244704	-83.566206	-177.293952	-83.566206	-177.293952	-0.033483	-26.244966
1.800000	-0.034505	-26.980071	-82.580104	-177.481041	-82.580104	-177.481041	-0.034505	-26.980340
1.850000	-0.035518	-27.714665	-81.648740	-177.754837	-81.648740	-177.754837	-0.035519	-27.714941
1.900000	-0.036524	-28.448306	-80.753786	-178.108929	-80.753786	-178.108929	-0.036524	-28.448590
1.950000	-0.037520	-29.180994	-79.893725	-178.543318	-79.893725	-178.543318	-0.037521	-29.181287
2.000000	-0.038511	-29.912867	-79.071340	-179.032424	-79.071340	-179.032424	-0.038512	-29.913168
2.050000	-0.039494	-30.643596	-78.269209	-179.598135	-78.269209	-179.598135	-0.039495	-30.643906
2.100000	-0.040474	-31.373653	-77.506354	179.798884	-77.506354	179.798884	-0.040475	-31.373972
2.150000	-0.041447	-32.102367	-76.752646	179.121362	-76.752646	179.121362	-0.041448	-32.102695
2.200000	-0.042419	-32.830562	-76.039823	178.419362	-76.039823	178.419362	-0.042420	-32.830899
2.250000	-0.043386	-33.557201	-75.327567	177.643925	-75.327567	177.643925	-0.043387	-33.557547
2.300000	-0.044353	-34.283485	-74.657649	176.853918	-74.657649	176.853918	-0.044354	-34.283841
2.350000	-0.045318	-35.007991	-73.981612	175.991053	-73.981612	175.991053	-0.045319	-35.008356
2.400000	-0.046282	-35.732314	-73.349116	175.121597	-73.349116	175.121597	-0.046283	-35.732689
2.450000	-0.047247	-36.454628	-72.705291	174.179638	-72.705291	174.179638	-0.047248	-36.455013
2.500000	-0.048212	-37.176941	-72.105912	173.237679	-72.105912	173.237679	-0.048214	-37.177337
2.550000	-0.049181	-37.897004	-71.491180	172.223575	-71.491180	172.223575	-0.049182	-37.897410
2.600000	-0.050150	-38.617067	-70.917093	171.209471	-70.917093	171.209471	-0.050151	-38.617483
2.650000	-0.051124	-39.335014	-70.333382	170.134778	-70.333382	170.134778	-0.051126	-39.335441
2.700000	-0.052100	-40.052769	-69.782590	169.054577	-69.782590	169.054577	-0.052101	-40.053206
2.750000	-0.053082	-40.768555	-69.227145	167.923852	-69.227145	167.923852	-0.053083	-40.769002
2.800000	-0.054067	-41.483946	-68.698048	166.783024	-68.698048	166.783024	-0.054068	-41.484404
2.850000	-0.055060	-42.197525	-68.168584	165.600555	-68.168584	165.600555	-0.055061	-42.197994
2.900000	-0.056055	-42.910499	-67.659891	164.404206	-67.659891	164.404206	-0.056057	-42.910979
2.950000	-0.057061	-43.621827	-67.154484	163.174106	-67.154484	163.174106	-0.057062	-43.622319
3.000000	-0.058071	-44.332333	-66.665133	161.927129	-66.665133	161.927129	-0.058072	-44.332835
3.050000	-0.059090	-45.041370	-66.182143	160.653403	-66.182143	160.653403	-0.059092	-45.041884
3.100000	-0.060116	-45.749359	-65.711247	159.360570	-65.711247	159.360570	-0.060118	-45.749884
3.150000	-0.061151	-46.456065	-65.249251	158.047162	-65.249251	158.047162	-0.061153	-46.456602
3.200000	-0.062196	-47.161490	-64.796050	156.713179	-64.796050	156.713179	-0.062197	-47.162038
3.250000	-0.063249	-47.865829	-64.353798	155.363996	-64.353798	155.363996	-0.063250	-47.866388
3.300000	-0.064313	-48.568647	-63.917622	153.993533	-63.917622	153.993533	-0.064315	-48.569218
3.350000	-0.065386	-49.270583	-63.493997	152.612453	-63.493997	152.612453	-0.065387	-49.271165
3.400000	-0.066472	-49.970754	-63.074234	151.210141	-63.074234	151.210141	-0.066474	-49.971348
3.450000	-0.067565	-50.670254	-62.668225	149.801012	-62.668225	149.801012	-0.067567	-50.670860
3.500000	-0.068676	-51.367741	-62.264298	148.371429	-62.264298	148.371429	-0.068678	-51.368359
3.550000	-0.069791	-52.064774	-61.874972	146.938050	-61.874972	146.938050	-0.069793	-52.065404
3.600000	-0.070927	-52.759542	-61.486317	145.485686	-61.486317	145.485686	-0.070929	-52.760184
3.650000	-0.072066	-53.454081	-61.112808	144.031787	-61.112808	144.031787	-0.072068	-53.454735
3.700000	-0.073230	-54.146100	-60.738860	142.561001	-60.738860	142.561001	-0.073232	-54.146765
3.750000	-0.074393	-54.838118	-60.380348	141.090214	-60.380348	141.090214	-0.074395	-54.838796
3.800000	-0.075586	-55.527359	-60.020531	139.605183	-60.020531	139.605183	-0.075588	-55.528049
3.850000	-0.076778	-56.216600	-59.675028	138.120152	-59.675028	138.120152	-0.076781	-56.217302
3.900000	-0.077999	-56.903272	-59.329958	136.625681	-59.329958	136.625681	-0.078001	-56.903986
3.950000	-0.079222	-57.589710	-58.996955	135.130352	-58.996955	135.130352	-0.079224	-57.590437
4.000000	-0.080472	-58.273796	-58.665775	133.629498	-58.665775	133.629498	-0.080474	-58.274535
4.050000	-0.081727	-58.957411	-58.344742	132.127539	-58.344742	132.127539	-0.081729	-58.958162
4.100000	-0.083007	-59.638894	-58.026625	130.623115	-58.026625	130.623115	-0.083010	-59.639658
4.150000	-0.084296	-60.319666	-57.717006	129.117870	-57.717006	129.117870	-0.084298	-60.320443
4.200000	-0.085608	-60.998534	-57.411152	127.612425	-57.411152	127.612425	-0.085610	-60.999323
4.250000	-0.086931	-61.676449	-57.112374	126.106881	-57.112374	126.106881	-0.086934	-61.677251
4.300000	-0.088276	-62.352691	-56.818011	124.602681	-56.818011	124.602681	-0.088279	-62.353505
4.350000	-0.089637	-63.027736	-56.529483	123.099442	-56.529483	123.099442	-0.089639	-63.028564
4.400000	-0.091016	-63.701343	-56.245865	121.598458	-56.245865	121.598458	-0.091019	-63.702183
4.450000	-0.092414	-64.373510	-55.966989	120.099730	-55.966989	120.099730	-0.092417	-64.374363
4.500000	-0.093829	-65.044476	-55.693402	118.603635	-55.693402	118.603635	-0.093832	-65.045342
4.550000	-0.095266	-65.713759	-55.423575	117.111224	-55.423575	117.111224	-0.095269	-65.714638
4.600000	-0.096718	-66.382080	-55.159335	115.621389	-55.159335	115.621389	-0.096721	-66.382971
4.650000	-0.098196	-67.048475	-54.897960	114.136704	-54.897960	114.136704	-0.098199	-67.049380
4.700000	-0.099686	-67.714149	-54.642415	112.654209	-54.642415	112.654209	-0.099689	-67.715067
4.750000	-0.101206	-68.377658	-54.388906	111.178280	-54.388906	111.178280	-0.101210	-68.378589
4.800000	-0.102735	-69.040686	-54.141436	109.703921	-54.141436	109.703921	-0.102738	-69.041630
4.850000	-0.104300	-69.701310	-53.895226	108.237416	-53.895226	108.237416	-0.104303	-69.702267
4.900000	-0.105869	-70.361694	-53.655249	106.771725	-53.655249	106.771725	-0.105872	-70.362665
4.950000	-0.107479	-71.019440	-53.415792	105.314983	-53.415792	105.314983	-0.107482	-71.020424
5.000000	-0.109089	-71.677186	-53.182760	103.858241	-53.182760	103.858241	-0.109093	-71.678183
5.050000	-0.110746	-72.332062	-52.949539	102.411298	-52.949539	102.411298	-0.110750	-72.333073
5.100000	-0.112403	-72.986939	-52.722418	100.964356	-52.722418	100.964356	-0.112407	-72.987962
5.150000	-0.114105	-73.639195	-52.495475	99.526188	-52.495475	99.526188	-0.114109	-73.640232
5.200000	-0.115811	-74.291212	-52.273813	98.088818	-52.273813	98.088818	-0.115814	-74.292263
5.250000	-0.117558	-74.940860	-52.052675	96.659042	-52.052675	96.659042	-0.117561	-74.941924
5.300000	-0.119313	-75.590034	-51.836054	95.230785	-51.836054	95.230785	-0.119317	-75.591112
5.350000	-0.121107	-76.237087	-51.620293	93.808872	-51.620293	93.808872	-0.121111	-76.238178
5.400000	-0.122914	-76.883433	-51.408328	92.389075	-51.408328	92.389075	-0.122918	-76.884538
5.450000	-0.124756	-77.527907	-51.197558	90.974375	-51.197558	90.974375	-0.124760	-77.529026
5.500000	-0.126616	-78.171446	-50.989901	89.562223	-50.989901	89.562223	-0.126620	-78.172578
5.550000	-0.128507	-78.813358	-50.783777	88.153984	-50.783777	88.153984	-0.128512	-78.814505
5.600000	-0.130422	-79.454111	-50.580117	86.748540	-50.580117	86.748540	-0.130426	-79.455271
5.650000	-0.132364	-80.093482	-50.378331	85.345933	-50.378331	85.345933	-0.132369	-80.094656
5.700000	-0.134335	-80.731472	-50.178396	83.946163	-50.178396	83.946163	-0.134339	-80.732661
5.750000	-0.136329	-81.368323	-49.980677	82.548302	-49.980677	82.548302	-0.136334	-81.369526
5.800000	-0.138357	-82.003578	-49.784234	81.153111	-49.784234	81.153111	-0.138362	-82.004795
5.850000	-0.140405	-82.637932	-49.590347	79.759071	-49.590347	79.759071	-0.140410	-82.639163
5.900000	-0.142492	-83.270481	-49.397197	78.367332	-49.397197	78.367332	-0.142497	-83.271727
5.950000	-0.144594	-83.902363	-49.206942	76.976172	-49.206942	76.976172	-0.144599	-83.903623
6.000000	-0.146742	-84.532238	-49.016926	75.586749	-49.016926	75.586749	-0.146747	-84.533512
6.050000	-0.148901	-85.161673	-48.830131	74.197526	-48.830131	74.197526	-0.148906	-85.162962
6.100000	-0.151111	-85.788908	-48.643124	72.809305	-48.643124	72.809305	-0.151117	-85.790212
6.150000	-0.153327	-86.415926	-48.459650	71.421094	-48.459650	71.421094	-0.153333	-86.417244
6.200000	-0.155602	-87.040557	-48.275562	70.033003	-48.275562	70.033003	-0.155607	-87.041890
6.250000	-0.157876	-87.665187	-48.095295	68.644912	-48.095295	68.644912	-0.157882	-87.666535
6.300000	-0.160216	-88.287252	-47.914068	67.255948	-47.914068	67.255948	-0.160222	-88.288614
6.350000	-0.162557	-88.909316	-47.736545	65.866983	-47.736545	65.866983	-0.162562	-88.910693
6.400000	-0.164958	-89.529065	-47.558526	64.476377	-47.558526	64.476377	-0.164964	-89.530457
6.450000	-0.167366	-90.148603	-47.383721	63.085621	-47.383721	63.085621	-0.167372	-90.150010
6.500000	-0.169830	-90.766072	-47.208871	61.692700	-47.208871	61.692700	-0.169836	-90.767494
6.550000	-0.172307	-91.383126	-47.036786	60.299345	-47.036786	60.299345	-0.172313	-91.384564
6.600000	-0.174836	-91.998351	-46.865084	58.903529	-46.865084	58.903529	-0.174842	-91.999804
6.650000	-0.177383	-92.612967	-46.695743	57.506892	-46.695743	57.506892	-0.177389	-92.614435
6.700000	-0.179978	-93.225987	-46.527187	56.107706	-46.527187	56.107706	-0.179984	-93.227471
6.750000	-0.182597	-93.838210	-46.360636	54.707246	-46.360636	54.707246	-0.182603	-93.839709
6.800000	-0.185259	-94.449065	-46.195236	53.304332	-46.195236	53.304332	-0.185265	-94.450579
6.850000	-0.187951	-95.058943	-46.031538	51.899666	-46.031538	51.899666	-0.187958	-95.060473
6.900000	-0.190682	-95.667674	-45.869317	50.492789	-45.869317	50.492789	-0.190689	-95.669220
6.950000	-0.193450	-96.275258	-45.708547	49.083702	-45.708547	49.083702	-0.193457	-96.276820
7.000000	-0.196251	-96.881908	-45.549535	47.672758	-45.549535	47.672758	-0.196258	-96.883486
7.050000	-0.199096	-97.487251	-45.391780	46.259214	-45.391780	46.259214	-0.199103	-97.488845
7.100000	-0.201967	-98.091864	-45.236012	44.844235	-45.236012	44.844235	-0.201975	-98.093474
7.150000	-0.204891	-98.695019	-45.081364	43.426384	-45.081364	43.426384	-0.204899	-98.696645
7.200000	-0.207836	-99.297640	-44.928879	42.007541	-44.928879	42.007541	-0.207844	-99.299283
7.250000	-0.210840	-99.898663	-44.777428	40.585720	-44.777428	40.585720	-0.210848	-99.900322
7.300000	-0.213858	-100.499340	-44.628263	39.163325	-44.628263	39.163325	-0.213866	-100.501016
7.350000	-0.216944	-101.098290	-44.480096	37.738057	-44.480096	37.738057	-0.216952	-101.099982
7.400000	-0.220038	-101.697071	-44.334286	36.312561	-44.334286	36.312561	-0.220046	-101.698780
7.450000	-0.223207	-102.294006	-44.189481	34.884550	-44.189481	34.884550	-0.223216	-102.295731
7.500000	-0.226377	-102.890940	-44.047051	33.456540	-44.047051	33.456540	-0.226386	-102.892683
7.550000	-0.229632	-103.485922	-43.905672	32.026660	-43.905672	32.026660	-0.229641	-103.487682
7.600000	-0.232887	-104.080904	-43.766558	30.596781	-43.766558	30.596781	-0.232896	-104.082682
7.650000	-0.236221	-104.674154	-43.628732	29.166133	-43.628732	29.166133	-0.236230	-104.675949
7.700000	-0.239563	-105.267247	-43.492978	27.735414	-43.492978	27.735414	-0.239573	-105.269059
7.750000	-0.242978	-105.858819	-43.358686	26.304969	-43.358686	26.304969	-0.242987	-105.860649
7.800000	-0.246408	-106.450088	-43.226315	24.874578	-43.226315	24.874578	-0.246418	-106.451935
7.850000	-0.249905	-107.040038	-43.095517	23.445390	-43.095517	23.445390	-0.249915	-107.041903
7.900000	-0.253425	-107.629548	-42.966524	22.016605	-42.966524	22.016605	-0.253435	-107.631432
7.950000	-0.257005	-108.217933	-42.839161	20.589798	-42.839161	20.589798	-0.257015	-108.219835
8.000000	-0.260616	-108.805755	-42.713511	19.163980	-42.713511	19.163980	-0.260627	-108.807676
8.050000	-0.264281	-109.392633	-42.589498	17.740721	-42.589498	17.740721	-0.264292	-109.394572
8.100000	-0.267985	-109.978837	-42.467122	16.319290	-42.467122	16.319290	-0.267996	-109.980795
8.150000	-0.271736	-110.564268	-42.346353	14.900770	-42.346353	14.900770	-0.271747	-110.566245
8.200000	-0.275533	-111.148926	-42.227147	13.485163	-42.227147	13.485163	-0.275545	-111.150922
8.250000	-0.279371	-111.732971	-42.109489	12.072577	-42.109489	12.072577	-0.279383	-111.734986
8.300000	-0.283265	-112.316157	-41.993312	10.664220	-41.993312	10.664220	-0.283277	-112.318192
8.350000	-0.287191	-112.898879	-41.878608	9.258740	-41.878608	9.258740	-0.287203	-112.900933
8.400000	-0.291182	-113.480670	-41.765281	7.859013	-41.765281	7.859013	-0.291194	-113.482744
8.450000	-0.295197	-114.062131	-41.653351	6.461768	-41.653351	6.461768	-0.295210	-114.064225
8.500000	-0.299286	-114.642605	-41.542658	5.071969	-41.542658	5.071969	-0.299299	-114.644719
8.550000	-0.303393	-115.222872	-41.433296	3.684023	-41.433296	3.684023	-0.303406	-115.225007
8.600000	-0.307581	-115.802109	-41.324986	2.305338	-41.324986	2.305338	-0.307594	-115.804264
8.650000	-0.311779	-116.381248	-41.217964	0.927666	-41.217964	0.927666	-0.311793	-116.383425
8.700000	-0.316068	-116.959329	-41.111748	-0.438862	-41.111748	-0.438862	-0.316082	-116.961527
8.750000	-0.320359	-117.537410	-41.006815	-1.805390	-41.006815	-1.805390	-0.320373	-117.539629
8.800000	-0.324750	-118.114419	-40.902375	-3.158888	-40.902375	-3.158888	-0.324764	-118.116660
8.850000	-0.329144	-118.691428	-40.799175	-4.512386	-40.799175	-4.512386	-0.329158	-118.693691
8.900000	-0.333630	-119.267535	-40.696246	-5.853317	-40.696246	-5.853317	-0.333644	-119.269819
8.950000	-0.338127	-119.843558	-40.594438	-7.193105	-40.594438	-7.193105	-0.338141	-119.845865
9.000000	-0.342709	-120.418835	-40.492694	-8.521081	-40.492694	-8.521081	-0.342723	-120.421165
9.050000	-0.347310	-120.993961	-40.391909	-9.846694	-40.391909	-9.846694	-0.347325	-120.996314
9.100000	-0.351989	-121.568483	-40.291010	-11.161501	-40.291010	-11.161501	-0.352004	-121.570859
9.150000	-0.356695	-122.142803	-40.190853	-12.472707	-40.190853	-12.472707	-0.356710	-122.145203
9.200000	-0.361472	-122.716647	-40.090447	-13.774316	-40.090447	-13.774316	-0.361487	-122.719071
9.250000	-0.366285	-123.290253	-39.990501	-15.071128	-39.990501	-15.071128	-0.366301	-123.292701
9.300000	-0.371160	-123.863498	-39.890223	-16.359705	-39.890223	-16.359705	-0.371176	-123.865970
9.350000	-0.376080	-124.436485	-39.790051	-17.642398	-39.790051	-17.642398	-0.376097	-124.438982
9.400000	-0.381055	-125.009210	-39.689527	-18.918307	-39.689527	-18.918307	-0.381071	-125.011733
9.450000	-0.386084	-125.581676	-39.588675	-20.187431	-39.588675	-20.187431	-0.386100	-125.584224
9.500000	-0.391158	-126.153965	-39.487523	-21.451247	-39.487523	-21.451247	-0.391175	-126.156540
9.550000	-0.396296	-126.726008	-39.385518	-22.707634	-39.385518	-22.707634	-0.396313	-126.728610
9.600000	-0.401471	-127.297945	-39.283348	-23.960152	-39.283348	-23.960152	-0.401488	-127.300573
9.650000	-0.406719	-127.869669	-39.179701	-25.204934	-39.179701	-25.204934	-0.406736	-127.872325
9.700000	-0.411996	-128.441340	-39.076119	-26.447175	-39.076119	-26.447175	-0.412013	-128.444023
9.750000	-0.417353	-129.012850	-38.970326	-27.681797	-38.970326	-27.681797	-0.417371	-129.015562
9.800000	-0.422732	-129.584342	-38.864931	-28.915021	-38.864931	-28.915021	-0.422749	-129.587082
9.850000	-0.428201	-130.155746	-38.756474	-30.141260	-38.756474	-30.141260	-0.428218	-130.158516
9.900000	-0.433681	-130.727150	-38.648860	-31.366979	-38.648860	-31.366979	-0.433699	-130.729950
9.950000	-0.439261	-131.298559	-38.537202	-32.586972	-38.537202	-32.586972	-0.439279	-131.301389
10.000000	-0.444845	-131.869968	-38.426962	-33.806964	-38.426962	-33.806964	-0.444863	-131.872828
