! freq	dB(S11)	phase(S11)	dB(S12)	phase(S12)	
!     	dB(S21)	phase(S21)	dB(S22)	phase(S22)	
!S-par simulation data
#  GHz  S  DB  R 50
0.000000	-0.000000	0.000000	-355.271646	0.000000	-355.271646	0.000000	-0.000000	0.000000
0.050000	-0.000126	-0.767035	-78.457339	-13.255406	-78.457339	-13.255406	-0.000126	-0.767074
0.100000	-0.000495	-1.533708	-78.313750	-6.319174	-78.313750	-6.319174	-0.000498	-1.533783
0.150000	-0.001091	-2.299672	-78.346861	-3.807044	-78.346861	-3.807044	-0.001096	-2.299777
0.200000	-0.001866	-3.064745	-78.427859	-2.393702	-78.427859	-2.393702	-0.001875	-3.064872
0.250000	-0.002791	-3.828735	-78.543134	-1.462474	-78.543134	-1.462474	-0.002803	-3.828878
0.300000	-0.003837	-4.591433	-78.692100	-0.802010	-78.692100	-0.802010	-0.003851	-4.591584
0.350000	-0.004950	-5.353018	-78.869546	-0.281324	-78.869546	-0.281324	-0.004966	-5.353174
0.400000	-0.006112	-6.113345	-79.080336	0.120044	-79.080336	0.120044	-0.006130	-6.113502
0.450000	-0.007294	-6.872578	-79.323405	0.435734	-79.323405	0.435734	-0.007312	-6.872735
0.500000	-0.008479	-7.630744	-79.601897	0.672866	-79.601897	0.672866	-0.008497	-7.630901
0.550000	-0.009653	-8.387933	-79.918148	0.836879	-79.918148	0.836879	-0.009671	-8.388092
0.600000	-0.010809	-9.144222	-80.275375	0.928083	-80.275375	0.928083	-0.010827	-9.144385
0.650000	-0.011942	-9.899682	-80.677601	0.943410	-80.677601	0.943410	-0.011958	-9.899850
0.700000	-0.013050	-10.654369	-81.129872	0.876674	-81.129872	0.876674	-0.013064	-10.654546
0.750000	-0.014133	-11.408332	-81.638561	0.718247	-81.638561	0.718247	-0.014145	-11.408519
0.800000	-0.015191	-12.161604	-82.211806	0.454150	-82.211806	0.454150	-0.015202	-12.161805
0.850000	-0.016225	-12.914099	-82.865899	0.032609	-82.865899	0.032609	-0.016234	-12.914316
0.900000	-0.017238	-13.665917	-83.611569	-0.551747	-83.611569	-0.551747	-0.017246	-13.666150
0.950000	-0.018243	-14.417400	-84.447290	-1.268802	-84.447290	-1.268802	-0.018250	-14.417651
1.000000	-0.019224	-15.167880	-85.439046	-2.383952	-85.439046	-2.383952	-0.019230	-15.168150
1.050000	-0.020202	-15.918133	-86.573848	-3.697652	-86.573848	-3.697652	-0.020207	-15.918423
1.100000	-0.021163	-16.667253	-87.967390	-6.004109	-87.967390	-6.004109	-0.021166	-16.667564
1.150000	-0.022122	-17.416256	-89.633322	-8.655555	-89.633322	-8.655555	-0.022124	-17.416588
1.200000	-0.023069	-18.163965	-91.770409	-15.101890	-91.770409	-15.101890	-0.023071	-18.164318
1.250000	-0.024016	-18.911674	-94.611127	-21.548225	-94.611127	-21.548225	-0.024018	-18.912048
1.300000	-0.024958	-19.658281	-98.326310	-40.827917	-98.326310	-40.827917	-0.024959	-19.658676
1.350000	-0.025898	-20.404160	-100.786434	-85.463617	-100.786434	-85.463617	-0.025898	-20.404576
1.400000	-0.026837	-21.149292	-97.857893	-127.053468	-97.857893	-127.053468	-0.026837	-21.149728
1.450000	-0.027775	-21.893658	-93.976404	-146.778157	-93.976404	-146.778157	-0.027775	-21.894115
1.500000	-0.028714	-22.637239	-90.887224	-155.942415	-90.887224	-155.942415	-0.028714	-22.637716
1.550000	-0.029654	-23.380016	-88.464286	-161.010029	-88.464286	-161.010029	-0.029654	-23.380513
1.600000	-0.030595	-24.121971	-86.489405	-164.288494	-86.489405	-164.288494	-0.030596	-24.122486
1.650000	-0.031538	-24.863083	-84.823178	-166.655695	-84.823178	-166.655695	-0.031539	-24.863617
1.700000	-0.032484	-25.603028	-83.363782	-168.417177	-83.363782	-168.417177	-0.032484	-25.603580
1.750000	-0.033430	-26.342517	-82.094242	-169.987555	-82.094242	-169.987555	-0.033431	-26.343086
1.800000	-0.034380	-27.080906	-80.944785	-171.347216	-80.944785	-171.347216	-0.034381	-27.081493
1.850000	-0.035331	-27.818510	-79.903212	-172.556365	-79.903212	-172.556365	-0.035333	-27.819113
1.900000	-0.036286	-28.555133	-78.943462	-173.688566	-78.943462	-173.688566	-0.036287	-28.555753
1.950000	-0.037242	-29.290776	-78.052388	-174.743821	-78.052388	-174.743821	-0.037244	-29.291412
2.000000	-0.038202	-30.025573	-77.222680	-175.772362	-77.222680	-175.772362	-0.038204	-30.026224
2.050000	-0.039164	-30.759184	-76.437724	-176.763504	-76.437724	-176.763504	-0.039166	-30.759851
2.100000	-0.040129	-31.492096	-75.702373	-177.748080	-75.702373	-177.748080	-0.040131	-31.492778
2.150000	-0.041097	-32.223609	-74.995863	-178.719528	-74.995863	-178.719528	-0.041099	-32.224306
2.200000	-0.042067	-32.954581	-74.331893	-179.692036	-74.331893	-179.692036	-0.042069	-32.955293
2.250000	-0.043041	-33.683931	-73.685459	179.332275	-73.685459	179.332275	-0.043044	-33.684657
2.300000	-0.044017	-34.412910	-73.077243	178.353612	-73.077243	178.353612	-0.044020	-34.413651
2.350000	-0.044998	-35.140038	-72.478108	177.360077	-72.478108	177.360077	-0.045001	-35.140792
2.400000	-0.045980	-35.866975	-71.914563	176.364392	-71.914563	176.364392	-0.045982	-35.867743
2.450000	-0.046968	-36.591823	-71.353514	175.345059	-71.353514	175.345059	-0.046971	-36.592605
2.500000	-0.047956	-37.316671	-70.826517	174.325726	-70.826517	174.325726	-0.047959	-37.317466
2.550000	-0.048952	-38.039185	-70.296730	173.275938	-70.296730	173.275938	-0.048955	-38.039994
2.600000	-0.049948	-38.761699	-69.797407	172.226149	-69.797407	172.226149	-0.049951	-38.762521
2.650000	-0.050952	-39.482028	-69.296479	171.146019	-69.296479	171.146019	-0.050955	-39.482863
2.700000	-0.051957	-40.202158	-68.820401	170.063132	-68.820401	170.063132	-0.051959	-40.203007
2.750000	-0.052970	-40.920262	-68.344098	168.951532	-68.344098	168.951532	-0.052972	-40.921123
2.800000	-0.053984	-41.637960	-67.887829	167.834189	-67.887829	167.834189	-0.053987	-41.638834
2.850000	-0.055007	-42.353800	-67.432833	166.690627	-67.432833	166.690627	-0.055009	-42.354687
2.900000	-0.056033	-43.069020	-66.993681	165.538324	-66.993681	165.538324	-0.056035	-43.069920
2.950000	-0.057067	-43.782561	-66.557362	164.362766	-66.557362	164.362766	-0.057069	-43.783473
3.000000	-0.058105	-44.495261	-66.133205	163.175582	-66.133205	163.175582	-0.058107	-44.496187
3.050000	-0.059151	-45.206468	-65.713458	161.968337	-65.713458	161.968337	-0.059153	-45.207406
3.100000	-0.060203	-45.916608	-65.302615	160.746764	-65.302615	160.746764	-0.060205	-45.917559
3.150000	-0.061263	-46.625449	-64.897743	159.508397	-64.897743	159.508397	-0.061264	-46.626412
3.200000	-0.062330	-47.332991	-64.498885	158.253237	-64.498885	158.253237	-0.062332	-47.333966
3.250000	-0.063405	-48.039435	-64.107514	156.984517	-64.107514	156.984517	-0.063407	-48.040423
3.300000	-0.064490	-48.744344	-63.719592	155.696813	-63.719592	155.696813	-0.064492	-48.745344
3.350000	-0.065582	-49.448363	-63.340601	154.398673	-63.340601	154.398673	-0.065583	-49.449376
3.400000	-0.066686	-50.150604	-62.962791	153.079663	-62.962791	153.079663	-0.066687	-50.151629
3.450000	-0.067795	-50.852171	-62.595264	151.753179	-62.595264	151.753179	-0.067796	-50.853208
3.500000	-0.068921	-51.551715	-62.226927	150.404273	-62.226927	150.404273	-0.068921	-51.552764
3.550000	-0.070050	-52.250805	-61.870113	149.050644	-61.870113	149.050644	-0.070051	-52.251866
3.600000	-0.071198	-52.947623	-61.510756	147.673401	-61.510756	147.673401	-0.071199	-52.948695
3.650000	-0.072348	-53.644211	-61.164038	146.293940	-61.164038	146.293940	-0.072349	-53.645296
3.700000	-0.073522	-54.338277	-60.813289	144.890063	-60.813289	144.890063	-0.073522	-54.339373
3.750000	-0.074695	-55.032342	-60.476156	143.486187	-60.476156	143.486187	-0.074696	-55.033450
3.800000	-0.075895	-55.723632	-60.133739	142.057512	-60.133739	142.057512	-0.075896	-55.724751
3.850000	-0.077096	-56.414921	-59.804311	140.628836	-59.804311	140.628836	-0.077096	-56.416052
3.900000	-0.078322	-57.103647	-59.471481	139.179224	-59.471481	139.179224	-0.078323	-57.104788
3.950000	-0.079552	-57.792139	-59.149584	137.727709	-59.149584	137.727709	-0.079552	-57.793291
4.000000	-0.080807	-58.478283	-58.826016	136.258890	-58.826016	136.258890	-0.080807	-58.479447
4.050000	-0.082067	-59.163959	-58.511530	134.786610	-58.511530	134.786610	-0.082067	-59.165133
4.100000	-0.083351	-59.847509	-58.196941	133.300392	-58.196941	133.300392	-0.083352	-59.848694
4.150000	-0.084644	-60.530351	-57.889782	131.809528	-57.889782	131.809528	-0.084645	-60.531546
4.200000	-0.085961	-61.211294	-57.583925	130.307788	-57.583925	130.307788	-0.085961	-61.212500
4.250000	-0.087288	-61.891289	-57.284034	128.800611	-57.284034	128.800611	-0.087289	-61.892505
4.300000	-0.088637	-62.569615	-56.986682	127.285285	-56.986682	127.285285	-0.088638	-62.570841
4.350000	-0.090001	-63.246749	-56.694014	125.764139	-56.694014	125.764139	-0.090002	-63.247985
4.400000	-0.091385	-63.922449	-56.404957	124.237206	-56.404957	124.237206	-0.091386	-63.923695
4.450000	-0.092787	-64.596715	-56.119471	122.704486	-56.119471	122.704486	-0.092789	-64.597970
4.500000	-0.094207	-65.269782	-55.838507	121.167954	-55.838507	121.167954	-0.094208	-65.271047
4.550000	-0.095649	-65.941172	-55.560157	119.626084	-55.560157	119.626084	-0.095651	-65.942445
4.600000	-0.097106	-66.611602	-55.287087	118.081971	-55.287087	118.081971	-0.097107	-66.612884
4.650000	-0.098590	-67.280111	-55.015817	116.533373	-55.015817	116.533373	-0.098592	-67.281402
4.700000	-0.100086	-67.947900	-54.750442	114.983691	-54.750442	114.983691	-0.100087	-67.949199
4.750000	-0.101613	-68.613527	-54.486178	113.430758	-54.486178	113.430758	-0.101615	-68.614835
4.800000	-0.103149	-69.278673	-54.228294	111.877492	-54.228294	111.877492	-0.103151	-69.279990
4.850000	-0.104721	-69.941419	-53.970941	110.322556	-53.970941	110.322556	-0.104723	-69.942743
4.900000	-0.106298	-70.603924	-53.720340	108.767640	-53.720340	108.767640	-0.106300	-70.605257
4.950000	-0.107917	-71.263791	-53.469780	107.212942	-53.469780	107.212942	-0.107919	-71.265131
5.000000	-0.109536	-71.923657	-53.226245	105.658244	-53.226245	105.658244	-0.109538	-71.925006
5.050000	-0.111203	-72.580651	-52.982336	104.105906	-52.982336	104.105906	-0.111205	-72.582007
5.100000	-0.112870	-73.237645	-52.745089	102.553568	-52.745089	102.553568	-0.112872	-73.239008
5.150000	-0.114582	-73.892013	-52.508217	101.005202	-52.508217	101.005202	-0.114584	-73.893383
5.200000	-0.116298	-74.546142	-52.277109	99.457196	-52.277109	99.457196	-0.116300	-74.547520
5.250000	-0.118056	-75.197893	-52.047002	97.914304	-52.047002	97.914304	-0.118058	-75.199277
5.300000	-0.119822	-75.849168	-51.821861	96.372434	-51.821861	96.372434	-0.119825	-75.850559
5.350000	-0.121627	-76.498313	-51.598238	94.836374	-51.598238	94.836374	-0.121630	-76.499711
5.400000	-0.123445	-77.146747	-51.378872	93.302250	-51.378872	93.302250	-0.123448	-77.148152
5.450000	-0.125299	-77.793298	-51.161449	91.774227	-51.161449	91.774227	-0.125302	-77.794709
5.500000	-0.127170	-78.438907	-50.947648	90.249253	-50.947648	90.249253	-0.127173	-78.440325
5.550000	-0.129072	-79.082879	-50.736140	88.730309	-50.736140	88.730309	-0.129075	-79.084303
5.600000	-0.130997	-79.725682	-50.527677	87.215671	-50.527677	87.215671	-0.131000	-79.727111
5.650000	-0.132949	-80.367091	-50.321798	85.706682	-50.321798	85.706682	-0.132953	-80.368526
5.700000	-0.134929	-81.007107	-50.118436	84.203342	-50.118436	84.203342	-0.134933	-81.008548
5.750000	-0.136933	-81.645971	-49.917903	82.705016	-49.917903	82.705016	-0.136936	-81.647419
5.800000	-0.138969	-82.283224	-49.719398	81.213708	-49.719398	81.213708	-0.138972	-82.284677
5.850000	-0.141024	-82.919564	-49.523932	79.726582	-49.523932	79.726582	-0.141028	-82.921023
5.900000	-0.143118	-83.554079	-49.330035	78.247820	-49.330035	78.247820	-0.143121	-83.555543
5.950000	-0.145226	-84.187916	-49.139363	76.772267	-49.139363	76.772267	-0.145229	-84.189385
6.000000	-0.147377	-84.819720	-48.949826	75.306343	-48.949826	75.306343	-0.147381	-84.821195
6.050000	-0.149539	-85.451078	-48.763686	73.842573	-48.763686	73.842573	-0.149542	-85.452558
6.100000	-0.151750	-86.080202	-48.578263	72.389575	-48.578263	72.389575	-0.151753	-86.081687
6.150000	-0.153966	-86.709105	-48.396400	70.937644	-48.396400	70.937644	-0.153969	-86.710596
6.200000	-0.156236	-87.335581	-48.214854	69.497460	-48.214854	69.497460	-0.156240	-87.337076
6.250000	-0.158508	-87.962057	-48.037025	68.057276	-48.037025	68.057276	-0.158511	-87.963557
6.300000	-0.160840	-88.585918	-47.859128	66.629614	-47.859128	66.629614	-0.160843	-88.587424
6.350000	-0.163172	-89.209780	-47.684802	65.201953	-47.684802	65.201953	-0.163176	-89.211291
6.400000	-0.165561	-89.831280	-47.510642	63.785348	-47.510642	63.785348	-0.165565	-89.832795
6.450000	-0.167956	-90.452565	-47.339614	62.369748	-47.339614	62.369748	-0.167959	-90.454085
6.500000	-0.170403	-91.071733	-47.168979	60.963691	-47.168979	60.963691	-0.170406	-91.073259
6.550000	-0.172861	-91.690479	-47.001061	59.559543	-47.001061	59.559543	-0.172864	-91.692009
6.600000	-0.175367	-92.307351	-46.833758	58.163424	-46.833758	58.163424	-0.175370	-92.308886
6.650000	-0.177889	-92.923599	-46.668776	56.769982	-46.668776	56.769982	-0.177893	-92.925138
6.700000	-0.180455	-93.538209	-46.504629	55.383102	-46.504629	55.383102	-0.180458	-93.539753
6.750000	-0.183043	-94.152001	-46.342428	53.999503	-46.342428	53.999503	-0.183046	-94.153549
6.800000	-0.185669	-94.764386	-46.181282	52.621084	-46.181282	52.621084	-0.185672	-94.765938
6.850000	-0.188324	-95.375766	-46.021726	51.246366	-46.021726	51.246366	-0.188326	-95.377323
6.900000	-0.191012	-95.985964	-45.863443	49.875566	-45.863443	49.875566	-0.191015	-95.987524
6.950000	-0.193734	-96.594978	-45.706418	48.508682	-45.706418	48.508682	-0.193736	-96.596543
7.000000	-0.196484	-97.203028	-45.550881	47.144600	-45.550881	47.144600	-0.196487	-97.204597
7.050000	-0.199275	-97.809725	-45.396292	45.784438	-45.396292	45.784438	-0.199278	-97.811298
7.100000	-0.202090	-98.415666	-45.243402	44.426130	-45.243402	44.426130	-0.202093	-98.417243
7.150000	-0.204951	-99.020096	-45.091181	43.071527	-45.091181	43.071527	-0.204954	-99.021677
7.200000	-0.207831	-99.623971	-44.940858	41.718014	-44.940858	41.718014	-0.207834	-99.625555
7.250000	-0.210764	-100.226183	-44.790957	40.367772	-44.790957	40.367772	-0.210766	-100.227771
7.300000	-0.213710	-100.828034	-44.643141	39.018054	-44.643141	39.018054	-0.213712	-100.829626
7.350000	-0.216716	-101.428082	-44.495538	37.670958	-44.495538	37.670958	-0.216718	-101.429678
7.400000	-0.219729	-102.027954	-44.350186	36.324022	-44.350186	36.324022	-0.219731	-102.029553
7.450000	-0.222810	-102.625892	-44.204883	34.978853	-44.204883	34.978853	-0.222812	-102.627494
7.500000	-0.225892	-103.223829	-44.061971	33.633684	-44.061971	33.633684	-0.225894	-103.225434
7.550000	-0.229049	-103.819711	-43.918995	32.289238	-43.918995	32.289238	-0.229051	-103.821320
7.600000	-0.232208	-104.415594	-43.778335	30.944793	-43.778335	30.944793	-0.232210	-104.417205
7.650000	-0.235437	-105.009644	-43.637921	29.599935	-43.637921	29.599935	-0.235439	-105.011257
7.700000	-0.238673	-105.603527	-43.499562	28.255039	-43.499562	28.255039	-0.238675	-105.605144
7.750000	-0.241976	-106.195794	-43.361748	26.908830	-43.361748	26.908830	-0.241978	-106.197412
7.800000	-0.245293	-106.787736	-43.225767	25.562358	-43.225767	25.562358	-0.245294	-106.789357
7.850000	-0.248670	-107.378267	-43.090608	24.213908	-43.090608	24.213908	-0.248672	-107.379890
7.900000	-0.252069	-107.968328	-42.957103	22.864797	-42.957103	22.864797	-0.252071	-107.969953
7.950000	-0.255524	-108.557174	-42.824673	21.513274	-42.824673	21.513274	-0.255525	-108.558800
8.000000	-0.259007	-109.145412	-42.693766	20.160545	-42.693766	20.160545	-0.259008	-109.147039
8.050000	-0.262541	-109.732623	-42.564153	18.805190	-42.564153	18.805190	-0.262542	-109.734251
8.100000	-0.266111	-110.319099	-42.435989	17.447961	-42.435989	17.447961	-0.266111	-110.320729
8.150000	-0.269725	-110.904726	-42.309299	16.088099	-42.309299	16.088099	-0.269725	-110.906356
8.200000	-0.273384	-111.489502	-42.184045	14.725606	-42.184045	14.725606	-0.273384	-111.491133
8.250000	-0.277081	-112.073596	-42.060395	13.360659	-42.060395	13.360659	-0.277081	-112.075227
8.300000	-0.280832	-112.656735	-41.938236	11.992275	-41.938236	11.992275	-0.280831	-112.658366
8.350000	-0.284614	-113.239349	-41.817759	10.621769	-41.817759	10.621769	-0.284613	-113.240979
8.400000	-0.288459	-113.820913	-41.698901	9.247021	-41.698901	9.247021	-0.288458	-113.822542
8.450000	-0.292329	-114.402098	-41.581738	7.870607	-41.581738	7.870607	-0.292327	-114.403727
8.500000	-0.296270	-114.982151	-41.466402	6.489193	-41.466402	6.489193	-0.296268	-114.983778
8.550000	-0.300230	-115.561962	-41.352707	5.106649	-41.352707	5.106649	-0.300228	-115.563587
8.600000	-0.304272	-116.140567	-41.241125	3.718456	-41.241125	3.718456	-0.304269	-116.142190
8.650000	-0.308325	-116.719056	-41.131059	2.329704	-41.131059	2.329704	-0.308321	-116.720677
8.700000	-0.312470	-117.296278	-41.023472	0.934818	-41.023472	0.934818	-0.312466	-117.297895
8.750000	-0.316618	-117.873499	-40.917202	-0.460068	-40.917202	-0.460068	-0.316613	-117.875114
8.800000	-0.320870	-118.449402	-40.813860	-1.861344	-40.813860	-1.861344	-0.320864	-118.451013
8.850000	-0.325124	-119.025306	-40.711733	-3.262620	-40.711733	-3.262620	-0.325118	-119.026912
8.900000	-0.329478	-119.600059	-40.612706	-4.669272	-40.612706	-4.669272	-0.329471	-119.601662
8.950000	-0.333843	-120.174709	-40.514968	-6.076412	-40.514968	-6.076412	-0.333835	-120.176306
9.000000	-0.338301	-120.748367	-40.420428	-7.487812	-40.420428	-7.487812	-0.338292	-120.749959
9.050000	-0.342781	-121.321828	-40.327323	-8.900063	-40.327323	-8.900063	-0.342771	-121.323414
9.100000	-0.347347	-121.894445	-40.237431	-10.315412	-40.237431	-10.315412	-0.347336	-121.896025
9.150000	-0.351944	-122.466782	-40.149195	-11.731792	-40.149195	-11.731792	-0.351932	-122.468355
9.200000	-0.356622	-123.038413	-40.064104	-13.150122	-40.064104	-13.150122	-0.356608	-123.039979
9.250000	-0.361341	-123.609690	-39.980956	-14.569426	-39.980956	-14.569426	-0.361326	-123.611249
9.300000	-0.366134	-124.180388	-39.900805	-15.989608	-39.900805	-15.989608	-0.366118	-124.181938
9.350000	-0.370980	-124.750672	-39.822950	-17.410417	-39.822950	-17.410417	-0.370962	-124.752213
9.400000	-0.375892	-125.320490	-39.747863	-18.831170	-39.747863	-18.831170	-0.375872	-125.322022
9.450000	-0.380869	-125.889844	-39.675477	-20.251867	-39.675477	-20.251867	-0.380847	-125.891366
9.500000	-0.385903	-126.458837	-39.605558	-21.671773	-39.605558	-21.671773	-0.385879	-126.460349
9.550000	-0.391016	-127.027325	-39.538791	-23.090568	-39.538791	-23.090568	-0.390990	-127.028826
9.600000	-0.396176	-127.595545	-39.474123	-24.508084	-39.474123	-24.508084	-0.396148	-127.597035
9.650000	-0.401430	-128.163232	-39.413090	-25.923039	-39.413090	-25.923039	-0.401399	-128.164709
9.700000	-0.406721	-128.730733	-39.353735	-27.336521	-39.353735	-27.336521	-0.406688	-128.732198
9.750000	-0.412120	-129.297680	-39.298514	-28.745583	-39.298514	-28.745583	-0.412084	-129.299132
9.800000	-0.417547	-129.864515	-39.244507	-30.153306	-39.244507	-30.153306	-0.417508	-129.865953
9.850000	-0.423097	-130.430786	-39.195136	-31.554340	-39.195136	-31.554340	-0.423055	-130.432209
9.900000	-0.428663	-130.997005	-39.146487	-32.954524	-39.146487	-32.954524	-0.428618	-130.998414
9.950000	-0.434369	-131.562662	-39.102964	-34.345356	-39.102964	-34.345356	-0.434321	-131.564055
10.000000	-0.440080	-132.128318	-39.059657	-35.736187	-39.059657	-35.736187	-0.440028	-132.129696
