! freq	dB(S11)	phase(S11)	dB(S12)	phase(S12)	
!     	dB(S21)	phase(S21)	dB(S22)	phase(S22)	
!S-par simulation data
#  GHz  S  DB  R 50
0.000000	-0.000000	0.000000	-348.308838	0.000000	-348.308838	0.000000	-0.000000	0.000000
0.050000	-0.000090	-0.922945	-70.326943	-55.213154	-70.326943	-55.213154	-0.000227	-2.237966
0.100000	-0.000356	-1.845710	-67.265948	-35.405561	-67.265948	-35.405561	-0.000901	-4.475176
0.150000	-0.000795	-2.768114	-66.407462	-24.928524	-66.407462	-24.928524	-0.002010	-6.710869
0.200000	-0.001393	-3.690004	-66.118770	-18.656750	-66.118770	-18.656750	-0.003520	-8.944385
0.250000	-0.002140	-4.611232	-66.053337	-14.535383	-66.053337	-14.535383	-0.005403	-11.175056
0.300000	-0.003023	-5.531668	-66.099414	-11.605511	-66.099414	-11.605511	-0.007623	-13.402278
0.350000	-0.004026	-6.451203	-66.215104	-9.397713	-66.215104	-9.397713	-0.010136	-15.625506
0.400000	-0.005133	-7.369747	-66.382371	-7.659161	-66.382371	-7.659161	-0.012900	-17.844257
0.450000	-0.006327	-8.287233	-66.592818	-6.242095	-66.592818	-6.242095	-0.015871	-20.058103
0.500000	-0.007592	-9.203610	-66.842522	-5.053740	-66.842522	-5.053740	-0.019005	-22.266675
0.550000	-0.008913	-10.118842	-67.129943	-4.031750	-67.129943	-4.031750	-0.022262	-24.469654
0.600000	-0.010277	-11.032909	-67.455001	-3.131187	-67.455001	-3.131187	-0.025606	-26.666767
0.650000	-0.011671	-11.945788	-67.818925	-2.317671	-67.818925	-2.317671	-0.029003	-28.857708
0.700000	-0.013083	-12.857479	-68.223547	-1.560604	-68.223547	-1.560604	-0.032424	-31.042268
0.750000	-0.014505	-13.767998	-68.671363	-0.831474	-68.671363	-0.831474	-0.035844	-33.220335
0.800000	-0.015929	-14.677354	-69.166093	-0.102001	-69.166093	-0.102001	-0.039243	-35.391754
0.850000	-0.017348	-15.585558	-69.712564	0.659292	-69.712564	0.659292	-0.042605	-37.556382
0.900000	-0.018757	-16.492621	-70.316953	1.489994	-70.316953	1.489994	-0.045917	-39.714091
0.950000	-0.020154	-17.398552	-70.987114	2.437714	-70.987114	2.437714	-0.049170	-41.864764
1.000000	-0.021535	-18.303361	-71.733024	3.565840	-71.733024	3.565840	-0.052357	-44.008288
1.050000	-0.022898	-19.207055	-72.567345	4.962614	-72.567345	4.962614	-0.055473	-46.144561
1.100000	-0.024242	-20.109637	-73.506070	6.756144	-73.506070	6.756144	-0.058517	-48.273486
1.150000	-0.025567	-21.011110	-74.569025	9.140299	-74.569025	9.140299	-0.061486	-50.394970
1.200000	-0.026872	-21.911473	-75.779452	12.420767	-75.779452	12.420767	-0.064382	-52.508928
1.250000	-0.028159	-22.810722	-77.159968	17.097999	-77.159968	17.097999	-0.067206	-54.615282
1.300000	-0.029427	-23.708827	-78.712082	24.090109	-78.712082	24.090109	-0.069959	-56.713791
1.350000	-0.030678	-24.605802	-80.361574	34.763131	-80.361574	34.763131	-0.072646	-58.804555
1.400000	-0.031912	-25.501639	-81.808990	50.765510	-81.808990	50.765510	-0.075268	-60.887518
1.450000	-0.033132	-26.396324	-82.412538	71.792534	-82.412538	71.792534	-0.077831	-62.962632
1.500000	-0.034338	-27.289842	-81.713838	92.997684	-81.713838	92.997684	-0.080338	-65.029857
1.550000	-0.035531	-28.182179	-80.118682	109.349935	-80.118682	109.349935	-0.082793	-67.089163
1.600000	-0.036713	-29.073318	-78.279499	120.242017	-78.279499	120.242017	-0.085200	-69.140531
1.650000	-0.037886	-29.963240	-76.521022	127.236682	-76.521022	127.236682	-0.087562	-71.183950
1.700000	-0.039049	-30.851926	-74.929919	131.760305	-74.929919	131.760305	-0.089884	-73.219421
1.750000	-0.040206	-31.739357	-73.506831	134.716686	-73.506831	134.716686	-0.092169	-75.246955
1.800000	-0.041356	-32.625513	-72.230333	136.643093	-72.230333	136.643093	-0.094420	-77.266574
1.850000	-0.042501	-33.510374	-71.076841	137.863578	-71.076841	137.863578	-0.096642	-79.278313
1.900000	-0.043643	-34.393903	-70.025426	138.576636	-70.025426	138.576636	-0.098838	-81.282130
1.950000	-0.044781	-35.276080	-69.059366	138.916614	-69.059366	138.916614	-0.101010	-83.278083
2.000000	-0.045918	-36.156897	-68.165448	138.975406	-68.165448	138.975406	-0.103162	-85.266326
2.050000	-0.047054	-37.036334	-67.332776	138.813463	-67.332776	138.813463	-0.105297	-87.246936
2.100000	-0.048189	-37.914370	-66.552579	138.474206	-66.552579	138.474206	-0.107417	-89.220003
2.150000	-0.049326	-38.790984	-65.817734	137.989586	-65.817734	137.989586	-0.109526	-91.185627
2.200000	-0.050464	-39.666157	-65.122405	137.383620	-65.122405	137.383620	-0.111626	-93.143919
2.250000	-0.051604	-40.539867	-64.461768	136.674706	-64.461768	136.674706	-0.113719	-95.095001
2.300000	-0.052747	-41.412096	-63.831798	135.877175	-63.831798	135.877175	-0.115808	-97.039003
2.350000	-0.053894	-42.282824	-63.229113	135.002360	-63.229113	135.002360	-0.117894	-98.976068
2.400000	-0.055045	-43.152034	-62.650851	134.059343	-62.650851	134.059343	-0.119980	-100.906346
2.450000	-0.056201	-44.019705	-62.094571	133.055488	-62.094571	133.055488	-0.122067	-102.829999
2.500000	-0.057363	-44.885822	-61.558182	131.996833	-61.558182	131.996833	-0.124158	-104.747195
2.550000	-0.058530	-45.750332	-61.039588	130.887390	-61.039588	130.887390	-0.126254	-106.657984
2.600000	-0.059704	-46.613253	-60.537540	129.732476	-60.537540	129.732476	-0.128357	-108.562692
2.650000	-0.060884	-47.474568	-60.050679	128.535569	-60.050679	128.535569	-0.130468	-110.461517
2.700000	-0.062072	-48.334264	-59.577819	127.299623	-59.577819	127.299623	-0.132590	-112.354665
2.750000	-0.063268	-49.192324	-59.117922	126.027165	-59.117922	126.027165	-0.134722	-114.242347
2.800000	-0.064472	-50.048736	-58.670076	124.720374	-58.670076	124.720374	-0.136868	-116.124784
2.850000	-0.065684	-50.903486	-58.233480	123.381136	-58.233480	123.381136	-0.139028	-118.002204
2.900000	-0.066905	-51.756561	-57.807427	122.011100	-57.807427	122.011100	-0.141204	-119.874843
2.950000	-0.068136	-52.607949	-57.391294	120.611714	-57.391294	120.611714	-0.143396	-121.742942
3.000000	-0.069376	-53.457640	-56.984531	119.184259	-56.984531	119.184259	-0.145606	-123.606749
3.050000	-0.070627	-54.305623	-56.586652	117.729882	-56.586652	117.729882	-0.147835	-125.466520
3.100000	-0.071887	-55.151888	-56.197226	116.249611	-56.197226	116.249611	-0.150084	-127.322515
3.150000	-0.073160	-55.996180	-55.814650	114.740981	-55.814650	114.740981	-0.152357	-129.174545
3.200000	-0.074443	-56.838962	-55.440999	113.211514	-55.440999	113.211514	-0.154650	-131.023805
3.250000	-0.075737	-57.680000	-55.074800	111.658749	-55.074800	111.658749	-0.156966	-132.870114
3.300000	-0.077043	-58.519288	-54.715795	110.083431	-54.715795	110.083431	-0.159305	-134.713756
3.350000	-0.078361	-59.356819	-54.363756	108.486264	-54.363756	108.486264	-0.161670	-136.555019
3.400000	-0.079692	-60.192587	-54.018484	106.867926	-54.018484	106.867926	-0.164061	-138.394198
3.450000	-0.081035	-61.026588	-53.679805	105.229071	-53.679805	105.229071	-0.166478	-140.231590
3.500000	-0.082392	-61.858817	-53.347567	103.570341	-53.347567	103.570341	-0.168922	-142.067498
3.550000	-0.083761	-62.689347	-53.021891	101.893171	-53.021891	101.893171	-0.171394	-143.902262
3.600000	-0.085145	-63.518003	-52.702088	100.196376	-52.702088	100.196376	-0.173896	-145.736110
3.650000	-0.086543	-64.344878	-52.388394	98.481629	-52.388394	98.481629	-0.176427	-147.569415
3.700000	-0.087956	-65.169970	-52.080726	96.749577	-52.080726	96.749577	-0.178989	-149.402496
3.750000	-0.089384	-65.993279	-51.779013	95.000879	-51.779013	95.000879	-0.181582	-151.235677
3.800000	-0.090828	-66.814765	-51.483107	93.235878	-51.483107	93.235878	-0.184208	-153.069301
3.850000	-0.092287	-67.634468	-51.193060	91.455630	-51.193060	91.455630	-0.186865	-154.903697
3.900000	-0.093763	-68.452389	-50.908827	89.660845	-50.908827	89.660845	-0.189556	-156.739198
3.950000	-0.095255	-69.268529	-50.630370	87.852256	-50.630370	87.852256	-0.192279	-158.576141
4.000000	-0.096764	-70.082891	-50.357655	86.030616	-50.357655	86.030616	-0.195037	-160.414865
4.050000	-0.098291	-70.895478	-50.090654	84.196698	-50.090654	84.196698	-0.197829	-162.255713
4.100000	-0.099835	-71.706293	-49.829337	82.351297	-49.829337	82.351297	-0.200656	-164.099029
4.150000	-0.101398	-72.515340	-49.573680	80.495224	-49.573680	80.495224	-0.203518	-165.945162
4.200000	-0.102979	-73.322624	-49.323657	78.629309	-49.323657	78.629309	-0.206416	-167.794461
4.250000	-0.104580	-74.128150	-49.079241	76.754397	-49.079241	76.754397	-0.209350	-169.647279
4.300000	-0.106200	-74.931925	-48.840405	74.871346	-48.840405	74.871346	-0.212320	-171.503969
4.350000	-0.107840	-75.733955	-48.607120	72.981021	-48.607120	72.981021	-0.215327	-173.364888
4.400000	-0.109501	-76.534228	-48.379351	71.084238	-48.379351	71.084238	-0.218371	-175.230446
4.450000	-0.111183	-77.332752	-48.157070	69.181903	-48.157070	69.181903	-0.221453	-177.101017
4.500000	-0.112886	-78.129554	-47.940247	67.274961	-47.940247	67.274961	-0.224573	-178.976909
4.550000	-0.114611	-78.924644	-47.728837	65.364281	-47.728837	65.364281	-0.227730	179.141515
4.600000	-0.116359	-79.718030	-47.522793	63.450725	-47.522793	63.450725	-0.230925	177.253893
4.650000	-0.118130	-80.509722	-47.322066	61.535139	-47.322066	61.535139	-0.234158	175.359863
4.700000	-0.119924	-81.299732	-47.126599	59.618354	-47.126599	59.618354	-0.237428	173.459060
4.750000	-0.121742	-82.088069	-46.936334	57.701178	-46.936334	57.701178	-0.240737	171.551122
4.800000	-0.123585	-82.874746	-46.751208	55.784394	-46.751208	55.784394	-0.244085	169.635686
4.850000	-0.125453	-83.659774	-46.571155	53.868756	-46.571155	53.868756	-0.247470	167.712389
4.900000	-0.127346	-84.443167	-46.396103	51.954985	-46.396103	51.954985	-0.250893	165.780870
4.950000	-0.129265	-85.224937	-46.225982	50.043767	-46.225982	50.043767	-0.254355	163.840768
5.000000	-0.131211	-86.005098	-46.060715	48.135752	-46.060715	48.135752	-0.257854	161.891724
5.050000	-0.133185	-86.783629	-45.900266	46.231642	-45.900266	46.231642	-0.261392	159.933173
5.100000	-0.135187	-87.560580	-45.744520	44.331930	-45.744520	44.331930	-0.264968	157.964953
5.150000	-0.137216	-88.335967	-45.593398	42.437136	-45.593398	42.437136	-0.268581	155.986715
5.200000	-0.139275	-89.109805	-45.446822	40.547735	-45.446822	40.547735	-0.272232	153.998109
5.250000	-0.141363	-89.882110	-45.304712	38.664156	-45.304712	38.664156	-0.275919	151.998793
5.300000	-0.143481	-90.652898	-45.166991	36.786784	-45.166991	36.786784	-0.279644	149.988428
5.350000	-0.145630	-91.422187	-45.033586	34.915963	-45.033586	34.915963	-0.283404	147.966678
5.400000	-0.147810	-92.189994	-44.904423	33.051990	-44.904423	33.051990	-0.287202	145.933217
5.450000	-0.150021	-92.956338	-44.779435	31.195126	-44.779435	31.195126	-0.291035	143.887722
5.500000	-0.152265	-93.721236	-44.658559	29.345592	-44.658559	29.345592	-0.294904	141.829878
5.550000	-0.154542	-94.484707	-44.541736	27.503574	-44.541736	27.503574	-0.298808	139.759378
5.600000	-0.156852	-95.246771	-44.428913	25.669228	-44.428913	25.669228	-0.302747	137.675922
5.650000	-0.159197	-96.007433	-44.320073	23.842765	-44.320073	23.842765	-0.306722	135.579075
5.700000	-0.161577	-96.766713	-44.215178	22.024295	-44.215178	22.024295	-0.310731	133.468548
5.750000	-0.163992	-97.524648	-44.114169	20.213819	-44.114169	20.213819	-0.314774	131.344216
5.800000	-0.166442	-98.281258	-44.017024	18.411412	-44.017024	18.411412	-0.318851	129.205825
5.850000	-0.168930	-99.036566	-43.923729	16.617143	-43.923729	16.617143	-0.322962	127.053131
5.900000	-0.171454	-99.790592	-43.834277	14.831086	-43.834277	14.831086	-0.327105	124.885904
5.950000	-0.174016	-100.543360	-43.748674	13.053322	-43.748674	13.053322	-0.331282	122.703931
6.000000	-0.176616	-101.294892	-43.666934	11.283950	-43.666934	11.283950	-0.335493	120.507013
6.050000	-0.179255	-102.045212	-43.589079	9.523095	-43.589079	9.523095	-0.339736	118.294967
6.100000	-0.181934	-102.794342	-43.515144	7.770919	-43.515144	7.770919	-0.344012	116.067628
6.150000	-0.184652	-103.542307	-43.445172	6.027626	-43.445172	6.027626	-0.348320	113.824852
6.200000	-0.187412	-104.289132	-43.379216	4.293479	-43.379216	4.293479	-0.352662	111.566512
6.250000	-0.190212	-105.034840	-43.317337	2.568803	-43.317337	2.568803	-0.357038	109.292504
6.300000	-0.193055	-105.779433	-43.259690	0.854230	-43.259690	0.854230	-0.361448	107.002400
6.350000	-0.195941	-106.522961	-43.206276	-0.849948	-43.206276	-0.849948	-0.365891	104.696483
6.400000	-0.198869	-107.265449	-43.157180	-2.543129	-43.157180	-2.543129	-0.370370	102.374718
6.450000	-0.201841	-108.006923	-43.112491	-4.224599	-43.112491	-4.224599	-0.374884	100.037096
6.500000	-0.204857	-108.747407	-43.072303	-5.893519	-43.072303	-5.893519	-0.379435	97.683634
6.550000	-0.207917	-109.486929	-43.036714	-7.548912	-43.036714	-7.548912	-0.384022	95.314375
6.600000	-0.211023	-110.225512	-43.005818	-9.189655	-43.005818	-9.189655	-0.388649	92.929391
6.650000	-0.214173	-110.963184	-42.979708	-10.814467	-42.979708	-10.814467	-0.393315	90.528782
6.700000	-0.217369	-111.699968	-42.958471	-12.421898	-42.958471	-12.421898	-0.398023	88.112677
6.750000	-0.220610	-112.435892	-42.942185	-14.010329	-42.942185	-14.010329	-0.402774	85.681236
6.800000	-0.223896	-113.170978	-42.930916	-15.577956	-42.930916	-15.577956	-0.407571	83.234650
6.850000	-0.227227	-113.905254	-42.924712	-17.122796	-42.924712	-17.122796	-0.412415	80.773137
6.900000	-0.230601	-114.638737	-42.923656	-18.642386	-42.923656	-18.642386	-0.417309	78.296796
6.950000	-0.234018	-115.371457	-42.927750	-20.134295	-42.927750	-20.134295	-0.422257	75.805921
7.000000	-0.237474	-116.103452	-42.936907	-21.596269	-42.936907	-21.596269	-0.427261	73.300989
7.050000	-0.240967	-116.834760	-42.951060	-23.025628	-42.951060	-23.025628	-0.432323	70.782351
7.100000	-0.244493	-117.565426	-42.970102	-24.419553	-42.970102	-24.419553	-0.437448	68.250388
7.150000	-0.248050	-118.295506	-42.993877	-25.775113	-42.993877	-25.775113	-0.442639	65.705512
7.200000	-0.251634	-119.025068	-43.022182	-27.089298	-43.022182	-27.089298	-0.447899	63.148167
7.250000	-0.255246	-119.754191	-43.054754	-28.359050	-43.054754	-28.359050	-0.453234	60.578826
7.300000	-0.258886	-120.482958	-43.091273	-29.581314	-43.091273	-29.581314	-0.458648	57.997992
7.350000	-0.262561	-121.211451	-43.131357	-30.753083	-43.131357	-30.753083	-0.464145	55.406196
7.400000	-0.266277	-121.939735	-43.174556	-31.871456	-43.174556	-31.871456	-0.469730	52.803995
7.450000	-0.270043	-122.667857	-43.220356	-32.933702	-43.220356	-32.933702	-0.475409	50.191974
7.500000	-0.273866	-123.395842	-43.268176	-33.937324	-43.268176	-33.937324	-0.481186	47.570741
7.550000	-0.277755	-124.123697	-43.317376	-34.878767	-43.317376	-34.878767	-0.487070	44.940755
7.600000	-0.281711	-124.851428	-43.367209	-35.757519	-43.367209	-35.757519	-0.493064	42.302869
7.650000	-0.285735	-125.579041	-43.416908	-36.572248	-43.416908	-36.572248	-0.499174	39.657755
7.700000	-0.289827	-126.306549	-43.465663	-37.322146	-43.465663	-37.322146	-0.505407	37.006102
7.750000	-0.293984	-127.033972	-43.512626	-38.006987	-43.512626	-38.006987	-0.511768	34.348612
7.800000	-0.298206	-127.761339	-43.556922	-38.627177	-43.556922	-38.627177	-0.518263	31.686000
7.850000	-0.302490	-128.488687	-43.597665	-39.183801	-43.597665	-39.183801	-0.524900	29.018989
7.900000	-0.306834	-129.216056	-43.633975	-39.678645	-43.633975	-39.678645	-0.531684	26.348312
7.950000	-0.311237	-129.943491	-43.664988	-40.114202	-43.664988	-40.114202	-0.538622	23.674703
8.000000	-0.315698	-130.671041	-43.689877	-40.493667	-43.689877	-40.493667	-0.545721	20.998902
8.050000	-0.320215	-131.398755	-43.707870	-40.820900	-43.707870	-40.820900	-0.552986	18.321644
8.100000	-0.324788	-132.126685	-43.718262	-41.100376	-43.718262	-41.100376	-0.560424	15.643663
8.150000	-0.329417	-132.854887	-43.720334	-41.336717	-43.720334	-41.336717	-0.568045	12.965696
8.200000	-0.334102	-133.583415	-43.713545	-41.535597	-43.713545	-41.535597	-0.575852	10.288485
8.250000	-0.338841	-134.312323	-43.697568	-41.703331	-43.697568	-41.703331	-0.583852	7.612736
8.300000	-0.343635	-135.041666	-43.672098	-41.845996	-43.672098	-41.845996	-0.592050	4.939142
8.350000	-0.348483	-135.771499	-43.636944	-41.969782	-43.636944	-41.969782	-0.600452	2.268380
8.400000	-0.353385	-136.501880	-43.592025	-42.080874	-43.592025	-42.080874	-0.609063	-0.398894
8.450000	-0.358341	-137.232867	-43.537372	-42.185341	-43.537372	-42.185341	-0.617889	-3.062042
8.500000	-0.363351	-137.964519	-43.473115	-42.289033	-43.473115	-42.289033	-0.626934	-5.720452
8.550000	-0.368416	-138.696898	-43.399478	-42.397500	-43.399478	-42.397500	-0.636203	-8.373534
8.600000	-0.373534	-139.430063	-43.316765	-42.515913	-43.316765	-42.515913	-0.645702	-11.020728
8.650000	-0.378706	-140.164077	-43.225345	-42.649016	-43.225345	-42.649016	-0.655434	-13.661499
8.700000	-0.383932	-140.899004	-43.125648	-42.801088	-43.125648	-42.801088	-0.665403	-16.295346
8.750000	-0.389212	-141.634909	-43.018141	-42.975922	-43.018141	-42.975922	-0.675613	-18.921796
8.800000	-0.394546	-142.371883	-42.903139	-43.177458	-42.903139	-43.177458	-0.686072	-21.540229
8.850000	-0.399934	-143.109971	-42.781357	-43.407999	-42.781357	-43.407999	-0.696779	-24.150403
8.900000	-0.405376	-143.849242	-42.653318	-43.669888	-42.653318	-43.669888	-0.707734	-26.751950
8.950000	-0.410871	-144.589768	-42.519544	-43.965045	-42.519544	-43.965045	-0.718942	-29.344534
9.000000	-0.416419	-145.331619	-42.380546	-44.295006	-42.380546	-44.295006	-0.730404	-31.927857
9.050000	-0.422021	-146.074870	-42.236820	-44.660957	-42.236820	-44.660957	-0.742121	-34.501657
9.100000	-0.427676	-146.819597	-42.088845	-45.063783	-42.088845	-45.063783	-0.754094	-37.065708
9.150000	-0.433383	-147.565874	-41.937073	-45.504104	-41.937073	-45.504104	-0.766325	-39.619818
9.200000	-0.439143	-148.313782	-41.781934	-45.982318	-41.781934	-45.982318	-0.778813	-42.163834
9.250000	-0.444956	-149.063400	-41.623830	-46.498636	-41.623830	-46.498636	-0.791558	-44.697638
9.300000	-0.450821	-149.814811	-41.463137	-47.053124	-41.463137	-47.053124	-0.804560	-47.221146
9.350000	-0.456739	-150.568099	-41.300206	-47.645725	-41.300206	-47.645725	-0.817819	-49.734311
9.400000	-0.462708	-151.323373	-41.135311	-48.276710	-41.135311	-48.276710	-0.831336	-52.237008
9.450000	-0.468731	-152.080722	-40.968762	-48.945861	-40.968762	-48.945861	-0.845108	-54.729259
9.500000	-0.474804	-152.840218	-40.800893	-49.652517	-40.800893	-49.652517	-0.859132	-57.211235
9.550000	-0.480929	-153.601951	-40.631964	-50.396404	-40.631964	-50.396404	-0.873405	-59.683023
9.600000	-0.487105	-154.366017	-40.462220	-51.177241	-40.462220	-51.177241	-0.887925	-62.144746
9.650000	-0.493332	-155.132514	-40.291887	-51.994753	-40.291887	-51.994753	-0.902687	-64.596555
9.700000	-0.499609	-155.901540	-40.121180	-52.848677	-40.121180	-52.848677	-0.917689	-67.038632
9.750000	-0.505936	-156.673198	-39.950304	-53.738771	-39.950304	-53.738771	-0.932927	-69.471188
9.800000	-0.512313	-157.447592	-39.779451	-54.664820	-39.779451	-54.664820	-0.948395	-71.894461
9.850000	-0.518740	-158.224829	-39.608812	-55.626636	-39.608812	-55.626636	-0.964090	-74.308717
9.900000	-0.525216	-159.005020	-39.438568	-56.624062	-39.438568	-56.624062	-0.980005	-76.714249
9.950000	-0.531741	-159.788278	-39.268899	-57.656970	-39.268899	-57.656970	-0.996135	-79.111374
10.000000	-0.538314	-160.574717	-39.099986	-58.725260	-39.099986	-58.725260	-1.012473	-81.500432
