! freq	dB(S11)	phase(S11)	dB(S12)	phase(S12)	
!     	dB(S21)	phase(S21)	dB(S22)	phase(S22)	
!S-par simulation data
#  GHz  S  DB  R 50
0.000000	-0.000000	0.000000	-364.420709	0.000000	-364.420709	0.000000	-0.000000	0.000000
0.050000	-0.002215	-1.110918	-107.423761	88.755070	-107.423761	88.755070	-0.002169	-1.111267
0.100000	-0.005834	-2.242927	-101.445013	87.509709	-101.445013	87.509709	-0.005756	-2.243152
0.150000	-0.008474	-3.386058	-97.994845	86.263333	-97.994845	86.263333	-0.008404	-3.386184
0.200000	-0.010241	-4.531331	-95.597530	85.015683	-95.597530	85.015683	-0.010188	-4.531471
0.250000	-0.011512	-5.675944	-93.799530	83.768945	-93.799530	83.768945	-0.011474	-5.676163
0.300000	-0.012580	-6.819332	-92.391847	82.533734	-92.391847	82.533734	-0.012552	-6.819654
0.350000	-0.013553	-7.961363	-91.274978	81.341067	-91.274978	81.341067	-0.013533	-7.961797
0.400000	-0.014501	-9.102045	-90.389399	80.257663	-90.389399	80.257663	-0.014486	-9.102593
0.450000	-0.015460	-10.241395	-89.692686	79.382784	-89.692686	79.382784	-0.015449	-10.242055
0.500000	-0.016450	-11.379412	-89.146113	78.801735	-89.146113	78.801735	-0.016442	-11.380182
0.550000	-0.017479	-12.516077	-88.715345	78.530358	-88.715345	78.530358	-0.017474	-12.516954
0.600000	-0.018553	-13.651358	-88.378290	78.523006	-88.378290	78.523006	-0.018549	-13.652340
0.650000	-0.019671	-14.785216	-88.127202	78.735139	-88.127202	78.735139	-0.019669	-14.786299
0.700000	-0.020832	-15.917604	-87.962994	79.170507	-87.962994	79.170507	-0.020831	-15.918785
0.750000	-0.022034	-17.048475	-87.888765	79.886146	-87.888765	79.886146	-0.022034	-17.049752
0.800000	-0.023274	-18.177778	-87.906567	80.980687	-87.906567	80.980687	-0.023274	-18.179149
0.850000	-0.024547	-19.305465	-88.016198	82.588834	-88.016198	82.588834	-0.024548	-19.306927
0.900000	-0.025851	-20.431489	-88.213793	84.885308	-88.213793	84.885308	-0.025852	-20.433039
0.950000	-0.027181	-21.555801	-88.488714	88.092911	-88.488714	88.092911	-0.027183	-21.557439
1.000000	-0.028534	-22.678358	-88.817559	92.484880	-88.817559	92.484880	-0.028536	-22.680081
1.050000	-0.029906	-23.799115	-89.154481	98.362081	-89.154481	98.362081	-0.029908	-23.800922
1.100000	-0.031294	-24.918032	-89.419635	105.969864	-89.419635	105.969864	-0.031296	-24.919920
1.150000	-0.032695	-26.035069	-89.495656	115.317731	-89.495656	115.317731	-0.032698	-26.037037
1.200000	-0.034107	-27.150188	-89.253157	125.939512	-89.253157	125.939512	-0.034109	-27.152235
1.250000	-0.035526	-28.263352	-88.614736	136.828383	-88.614736	136.828383	-0.035528	-28.265476
1.300000	-0.036950	-29.374438	-87.592215	146.746065	-87.592215	146.746065	-0.036953	-29.376638
1.350000	-0.038378	-30.483498	-86.324165	154.993980	-86.324165	154.993980	-0.038380	-30.485772
1.400000	-0.039808	-31.590498	-84.937686	161.440695	-84.937686	161.440695	-0.039810	-31.592845
1.450000	-0.041237	-32.695408	-83.524833	166.278564	-83.524833	166.278564	-0.041239	-32.697827
1.500000	-0.042666	-33.798197	-82.139174	169.802742	-82.139174	169.802742	-0.042668	-33.800687
1.550000	-0.044093	-34.898836	-80.807056	172.296923	-80.807056	172.296923	-0.044094	-34.901395
1.600000	-0.045517	-35.997295	-79.538850	173.995055	-79.538850	173.995055	-0.045518	-35.999923
1.650000	-0.046937	-37.093547	-78.336481	175.078188	-78.336481	175.078188	-0.046939	-37.096242
1.700000	-0.048354	-38.187564	-77.197768	175.682978	-77.197768	175.682978	-0.048355	-38.190326
1.750000	-0.049767	-39.279320	-76.118748	175.911947	-76.118748	175.911947	-0.049768	-39.282147
1.800000	-0.051176	-40.368790	-75.094867	175.842275	-75.094867	175.842275	-0.051177	-40.371681
1.850000	-0.052580	-41.455947	-74.121560	175.532543	-74.121560	175.532543	-0.052581	-41.458901
1.900000	-0.053981	-42.540767	-73.194521	175.027681	-73.194521	175.027681	-0.053982	-42.543783
1.950000	-0.055378	-43.623227	-72.309808	174.362542	-72.309808	174.362542	-0.055379	-43.626304
2.000000	-0.056772	-44.703302	-71.463865	173.564467	-71.463865	173.564467	-0.056772	-44.706439
2.050000	-0.058162	-45.780972	-70.653512	172.655147	-70.653512	172.655147	-0.058163	-45.784168
2.100000	-0.059550	-46.856214	-69.875914	171.651972	-69.875914	171.651972	-0.059550	-46.859467
2.150000	-0.060936	-47.929006	-69.128544	170.569022	-69.128544	170.569022	-0.060936	-47.932316
2.200000	-0.062321	-48.999330	-68.409151	169.417804	-68.409151	169.417804	-0.062321	-49.002695
2.250000	-0.063705	-50.067165	-67.715720	168.207807	-67.715720	168.207807	-0.063705	-50.070583
2.300000	-0.065088	-51.132492	-67.046452	166.946918	-67.046452	166.946918	-0.065088	-51.135964
2.350000	-0.066472	-52.195295	-66.399726	165.641742	-66.399726	165.641742	-0.066472	-52.198818
2.400000	-0.067857	-53.255556	-65.774087	164.297849	-65.774087	164.297849	-0.067857	-53.259129
2.450000	-0.069244	-54.313260	-65.168218	162.919971	-65.168218	162.919971	-0.069244	-54.316881
2.500000	-0.070634	-55.368391	-64.580927	161.512146	-64.580927	161.512146	-0.070634	-55.372059
2.550000	-0.072027	-56.420822	-64.010270	160.076835	-64.010270	160.076835	-0.072027	-56.424535
2.600000	-0.073424	-57.470652	-63.456220	158.618280	-63.456220	158.618280	-0.073424	-57.474410
2.650000	-0.074826	-58.517870	-62.917864	157.139036	-62.917864	157.139036	-0.074826	-58.521670
2.700000	-0.076234	-59.562464	-62.394365	155.641338	-62.394365	155.641338	-0.076234	-59.566304
2.750000	-0.077648	-60.604424	-61.884957	154.127144	-61.884957	154.127144	-0.077648	-60.608304
2.800000	-0.079069	-61.643743	-61.388933	152.598180	-61.388933	152.598180	-0.079069	-61.647660
2.850000	-0.080498	-62.680411	-60.905643	151.055972	-60.905643	151.055972	-0.080498	-62.684364
2.900000	-0.081936	-63.714423	-60.434484	149.501874	-60.434484	149.501874	-0.081935	-63.718410
2.950000	-0.083383	-64.745774	-59.974898	147.937091	-59.974898	147.937091	-0.083382	-64.749793
3.000000	-0.084840	-65.774458	-59.526368	146.362701	-59.526368	146.362701	-0.084839	-65.778507
3.050000	-0.086307	-66.800472	-59.088413	144.779666	-59.088413	144.779666	-0.086306	-66.804550
3.100000	-0.087786	-67.823815	-58.660583	143.188854	-58.660583	143.188854	-0.087785	-67.827919
3.150000	-0.089277	-68.844485	-58.242460	141.591046	-58.242460	141.591046	-0.089276	-68.848614
3.200000	-0.090781	-69.862482	-57.833651	139.986946	-57.833651	139.986946	-0.090779	-69.866634
3.250000	-0.092298	-70.877808	-57.433791	138.377192	-57.433791	138.377192	-0.092296	-70.881981
3.300000	-0.093829	-71.890465	-57.042534	136.762365	-57.042534	136.762365	-0.093827	-71.894656
3.350000	-0.095375	-72.900457	-56.659557	135.142991	-56.659557	135.142991	-0.095373	-72.904664
3.400000	-0.096936	-73.907788	-56.284555	133.519552	-56.284555	133.519552	-0.096934	-73.912010
3.450000	-0.098513	-74.912464	-55.917242	131.892487	-55.917242	131.892487	-0.098511	-74.916698
3.500000	-0.100107	-75.914491	-55.557348	130.262198	-55.557348	130.262198	-0.100104	-75.918736
3.550000	-0.101718	-76.913879	-55.204616	128.629054	-55.204616	128.629054	-0.101715	-76.918131
3.600000	-0.103347	-77.910635	-54.858805	126.993395	-54.858805	126.993395	-0.103344	-77.914893
3.650000	-0.104994	-78.904771	-54.519685	125.355534	-54.519685	125.355534	-0.104991	-78.909032
3.700000	-0.106660	-79.896297	-54.187041	123.715758	-54.187041	123.715758	-0.106657	-79.900560
3.750000	-0.108345	-80.885226	-53.860665	122.074335	-53.860665	122.074335	-0.108342	-80.889487
3.800000	-0.110052	-81.871459	-53.540115	120.431461	-53.540115	120.431461	-0.110048	-81.875717
3.850000	-0.111779	-82.855125	-53.225473	118.787434	-53.225473	118.787434	-0.111775	-82.859377
3.900000	-0.113528	-83.836238	-52.916561	117.142465	-52.916561	117.142465	-0.113524	-83.840482
3.950000	-0.115298	-84.814816	-52.613210	115.496749	-52.613210	115.496749	-0.115294	-84.819050
4.000000	-0.117091	-85.790877	-52.315256	113.850471	-52.315256	113.850471	-0.117086	-85.795097
4.050000	-0.118906	-86.764438	-52.022545	112.203799	-52.022545	112.203799	-0.118901	-86.768644
4.100000	-0.120745	-87.735521	-51.734929	110.556894	-51.734929	110.556894	-0.120740	-87.739709
4.150000	-0.122608	-88.704145	-51.452267	108.909905	-51.452267	108.909905	-0.122602	-88.708313
4.200000	-0.124495	-89.670333	-51.174425	107.262971	-51.174425	107.262971	-0.124489	-89.674478
4.250000	-0.126407	-90.634107	-50.901272	105.616223	-50.901272	105.616223	-0.126401	-90.638226
4.300000	-0.128344	-91.595491	-50.632685	103.969786	-50.632685	103.969786	-0.128338	-91.599582
4.350000	-0.130308	-92.554509	-50.368544	102.323774	-50.368544	102.323774	-0.130301	-92.558570
4.400000	-0.132297	-93.511186	-50.108737	100.678297	-50.108737	100.678297	-0.132290	-93.515215
4.450000	-0.134314	-94.465550	-49.853154	99.033457	-49.853154	99.033457	-0.134306	-94.469544
4.500000	-0.136357	-95.417628	-49.601688	97.389351	-49.601688	97.389351	-0.136349	-95.421583
4.550000	-0.138429	-96.367447	-49.354240	95.746071	-49.354240	95.746071	-0.138420	-96.371362
4.600000	-0.140529	-97.315037	-49.110713	94.103702	-49.110713	94.103702	-0.140520	-97.318908
4.650000	-0.142657	-98.260428	-48.871012	92.462326	-48.871012	92.462326	-0.142648	-98.264253
4.700000	-0.144815	-99.203650	-48.635047	90.822021	-48.635047	90.822021	-0.144805	-99.207426
4.750000	-0.147002	-100.144735	-48.402732	89.182858	-48.402732	89.182858	-0.146992	-100.148459
4.800000	-0.149219	-101.083715	-48.173982	87.544907	-48.173982	87.544907	-0.149209	-101.087385
4.850000	-0.151467	-102.020623	-47.948718	85.908232	-47.948718	85.908232	-0.151456	-102.024236
4.900000	-0.153746	-102.955493	-47.726860	84.272895	-47.726860	84.272895	-0.153735	-102.959047
4.950000	-0.156056	-103.888361	-47.508335	82.638956	-47.508335	82.638956	-0.156044	-103.891852
5.000000	-0.158398	-104.819260	-47.293068	81.006467	-47.293068	81.006467	-0.158386	-104.822686
5.050000	-0.160774	-105.748147	-47.080904	79.375550	-47.080904	79.375550	-0.160761	-105.751504
5.100000	-0.163182	-106.675142	-46.871868	77.746190	-46.871868	77.746190	-0.163169	-106.678428
5.150000	-0.165624	-107.600283	-46.665894	76.118433	-46.665894	76.118433	-0.165610	-107.603496
5.200000	-0.168099	-108.523610	-46.462917	74.492322	-46.462917	74.492322	-0.168085	-108.526746
5.250000	-0.170608	-109.445162	-46.262877	72.867900	-46.262877	72.867900	-0.170593	-109.448217
5.300000	-0.173151	-110.364977	-46.065712	71.245203	-46.065712	71.245203	-0.173136	-110.367949
5.350000	-0.175729	-111.283097	-45.871364	69.624269	-45.871364	69.624269	-0.175714	-111.285983
5.400000	-0.178343	-112.199563	-45.679778	68.005132	-45.679778	68.005132	-0.178327	-112.202360
5.450000	-0.180992	-113.114416	-45.490899	66.387824	-45.490899	66.387824	-0.180975	-113.117121
5.500000	-0.183677	-114.027700	-45.304673	64.772376	-45.304673	64.772376	-0.183660	-114.030310
5.550000	-0.186399	-114.939457	-45.121050	63.158814	-45.121050	63.158814	-0.186381	-114.941968
5.600000	-0.189157	-115.849730	-44.939980	61.547165	-44.939980	61.547165	-0.189139	-115.852141
5.650000	-0.191953	-116.758566	-44.761414	59.937454	-44.761414	59.937454	-0.191934	-116.760871
5.700000	-0.194786	-117.666007	-44.585305	58.329703	-44.585305	58.329703	-0.194766	-117.668204
5.750000	-0.197657	-118.572100	-44.411609	56.723933	-44.411609	56.723933	-0.197637	-118.574187
5.800000	-0.200567	-119.476892	-44.240281	55.120164	-44.240281	55.120164	-0.200546	-119.478863
5.850000	-0.203522	-120.380224	-44.071115	53.518768	-44.071115	53.518768	-0.203500	-120.382077
5.900000	-0.206518	-121.282297	-43.904199	51.919494	-43.904199	51.919494	-0.206496	-121.284028
5.950000	-0.209535	-122.183784	-43.739974	50.321295	-43.739974	50.321295	-0.209512	-122.185391
6.000000	-0.212614	-123.083515	-43.577453	48.726317	-43.577453	48.726317	-0.212590	-123.084992
6.050000	-0.215708	-123.982891	-43.417643	47.132064	-43.417643	47.132064	-0.215683	-123.984237
6.100000	-0.218871	-124.880493	-43.259379	45.541433	-43.259379	45.541433	-0.218846	-124.881703
6.150000	-0.222042	-125.777936	-43.103824	43.951166	-43.103824	43.951166	-0.222017	-125.779009
6.200000	-0.225292	-126.673630	-42.949686	42.364918	-42.949686	42.364918	-0.225265	-126.674558
6.250000	-0.228543	-127.569324	-42.798236	40.778670	-42.798236	40.778670	-0.228515	-127.570108
6.300000	-0.231880	-128.463335	-42.648101	39.196832	-42.648101	39.196832	-0.231852	-128.463966
6.350000	-0.235218	-129.357345	-42.500518	37.614995	-42.500518	37.614995	-0.235189	-129.357823
6.400000	-0.238637	-130.250022	-42.354366	36.037217	-42.354366	36.037217	-0.238607	-130.250341
6.450000	-0.242065	-131.142579	-42.210541	34.459807	-42.210541	34.459807	-0.242034	-131.142736
6.500000	-0.245567	-132.034118	-42.068239	32.886096	-42.068239	32.886096	-0.245535	-132.034107
6.550000	-0.249085	-132.925454	-41.928070	31.313125	-41.928070	31.313125	-0.249053	-132.925274
6.600000	-0.252672	-133.816054	-41.789492	29.743483	-41.789492	29.743483	-0.252638	-133.815699
6.650000	-0.256282	-134.706409	-41.652883	28.174951	-41.652883	28.174951	-0.256247	-134.705875
6.700000	-0.259954	-135.596272	-41.517912	26.609376	-41.517912	26.609376	-0.259918	-135.595554
6.750000	-0.263658	-136.485889	-41.384773	25.045279	-41.384773	25.045279	-0.263621	-136.484985
6.800000	-0.267416	-137.375221	-41.253300	23.483764	-41.253300	23.483764	-0.267379	-137.374124
6.850000	-0.271214	-138.264349	-41.123545	21.924094	-41.123545	21.924094	-0.271176	-138.263055
6.900000	-0.275060	-139.153359	-40.995467	20.366630	-40.995467	20.366630	-0.275021	-139.151863
6.950000	-0.278955	-140.042250	-40.869019	18.811373	-40.869019	18.811373	-0.278914	-140.040548
7.000000	-0.282889	-140.931150	-40.744239	17.257949	-40.744239	17.257949	-0.282848	-140.929237
7.050000	-0.286881	-141.820062	-40.621025	15.707091	-40.621025	15.707091	-0.286838	-141.817932
7.100000	-0.290897	-142.709034	-40.499470	14.157328	-40.499470	14.157328	-0.290853	-142.706685
7.150000	-0.294977	-143.598185	-40.379440	12.610396	-40.379440	12.610396	-0.294932	-143.595610
7.200000	-0.299104	-144.487552	-40.260967	11.065559	-40.260967	11.065559	-0.299057	-144.484745
7.250000	-0.303278	-145.377196	-40.144032	9.522814	-40.144032	9.522814	-0.303231	-145.374153
7.300000	-0.307501	-146.267179	-40.028619	7.982157	-40.028619	7.982157	-0.307452	-146.263893
7.350000	-0.311771	-147.157563	-39.914713	6.443585	-39.914713	6.443585	-0.311721	-147.154030
7.400000	-0.316090	-148.048412	-39.802299	4.907096	-39.802299	4.907096	-0.316039	-148.044625
7.450000	-0.320458	-148.939789	-39.691360	3.372687	-39.691360	3.372687	-0.320405	-148.935742
7.500000	-0.324874	-149.831757	-39.581885	1.840357	-39.581885	1.840357	-0.324820	-149.827445
7.550000	-0.329341	-150.724413	-39.473864	0.310195	-39.473864	0.310195	-0.329286	-150.719829
7.600000	-0.333857	-151.617795	-39.367281	-1.217890	-39.367281	-1.217890	-0.333801	-151.612934
7.650000	-0.338422	-152.511971	-39.262124	-2.743897	-39.262124	-2.743897	-0.338364	-152.506826
7.700000	-0.343037	-153.407005	-39.158382	-4.267825	-39.158382	-4.267825	-0.342978	-153.401569
7.750000	-0.347701	-154.302964	-39.056042	-5.789673	-39.056042	-5.789673	-0.347640	-154.297231
7.800000	-0.352415	-155.199915	-38.955096	-7.309436	-38.955096	-7.309436	-0.352352	-155.193878
7.850000	-0.357178	-156.097925	-38.855532	-8.827111	-38.855532	-8.827111	-0.357114	-156.091577
7.900000	-0.361991	-156.997064	-38.757340	-10.342693	-38.757340	-10.342693	-0.361926	-156.990397
7.950000	-0.366854	-157.897398	-38.660512	-11.856175	-38.660512	-11.856175	-0.366787	-157.890406
8.000000	-0.371766	-158.798997	-38.565039	-13.367550	-38.565039	-13.367550	-0.371698	-158.791673
8.050000	-0.376729	-159.701931	-38.470912	-14.876808	-38.470912	-14.876808	-0.376659	-159.694267
8.100000	-0.381741	-160.606270	-38.378125	-16.383940	-38.378125	-16.383940	-0.381670	-160.598258
8.150000	-0.386804	-161.512085	-38.286668	-17.888933	-38.286668	-17.888933	-0.386730	-161.503716
8.200000	-0.391916	-162.419445	-38.196535	-19.391775	-38.196535	-19.391775	-0.391841	-162.410713
8.250000	-0.397078	-163.328423	-38.107721	-20.892450	-38.107721	-20.892450	-0.397001	-163.319318
8.300000	-0.402289	-164.239092	-38.020217	-22.390943	-38.020217	-22.390943	-0.402211	-164.229606
8.350000	-0.407551	-165.151522	-37.934019	-23.887235	-37.934019	-23.887235	-0.407470	-165.141647
8.400000	-0.412861	-166.065789	-37.849120	-25.381306	-37.849120	-25.381306	-0.412780	-166.055515
8.450000	-0.418222	-166.981964	-37.765516	-26.873136	-37.765516	-26.873136	-0.418138	-166.971282
8.500000	-0.423631	-167.900122	-37.683202	-28.362700	-37.683202	-28.362700	-0.423546	-167.889023
8.550000	-0.429090	-168.820339	-37.602172	-29.849975	-37.602172	-29.849975	-0.429003	-168.808813
8.600000	-0.434598	-169.742687	-37.522422	-31.334933	-37.522422	-31.334933	-0.434509	-169.730725
8.650000	-0.440154	-170.667244	-37.443949	-32.817545	-37.443949	-32.817545	-0.440063	-170.654835
8.700000	-0.445759	-171.594085	-37.366747	-34.297781	-37.366747	-34.297781	-0.445666	-171.581220
8.750000	-0.451412	-172.523287	-37.290813	-35.775609	-37.290813	-35.775609	-0.451317	-172.509954
8.800000	-0.457114	-173.455035	-37.216171	-37.250885	-37.216171	-37.250885	-0.457017	-173.441224
8.850000	-0.462864	-174.389306	-37.142792	-38.723678	-37.142792	-38.723678	-0.462765	-174.375005
8.900000	-0.468661	-175.326176	-37.070672	-40.193949	-37.070672	-40.193949	-0.468560	-175.311374
8.950000	-0.474505	-176.265725	-36.999809	-41.661657	-36.999809	-41.661657	-0.474402	-176.250410
9.000000	-0.480395	-177.208031	-36.930197	-43.126761	-36.930197	-43.126761	-0.480290	-177.192191
9.050000	-0.486331	-178.153172	-36.861836	-44.589215	-36.861836	-44.589215	-0.486223	-178.136796
9.100000	-0.492311	-179.101230	-36.794721	-46.048972	-36.794721	-46.048972	-0.492202	-179.084304
9.150000	-0.498337	179.947717	-36.728850	-47.505985	-36.728850	-47.505985	-0.498225	179.965205
9.200000	-0.504406	178.993588	-36.664220	-48.960203	-36.664220	-48.960203	-0.504293	179.011650
9.250000	-0.510519	178.036302	-36.600827	-50.411575	-36.600827	-50.411575	-0.510403	178.054953
9.300000	-0.516675	177.075778	-36.538670	-51.860045	-36.538670	-51.860045	-0.516557	177.095031
9.350000	-0.522872	176.111935	-36.477744	-53.305558	-36.477744	-53.305558	-0.522752	176.131803
9.400000	-0.529111	175.144690	-36.418046	-54.748057	-36.418046	-54.748057	-0.528989	175.165189
9.450000	-0.535391	174.173962	-36.359575	-56.187483	-36.359575	-56.187483	-0.535266	174.195106
9.500000	-0.541709	173.199668	-36.302326	-57.623774	-36.302326	-57.623774	-0.541582	173.221473
9.550000	-0.548067	172.221726	-36.246295	-59.056868	-36.246295	-59.056868	-0.547937	172.244206
9.600000	-0.554462	171.240053	-36.191481	-60.486700	-36.191481	-60.486700	-0.554330	171.263224
9.650000	-0.560894	170.254565	-36.137878	-61.913206	-36.137878	-61.913206	-0.560760	170.278444
9.700000	-0.567361	169.265180	-36.085484	-63.336319	-36.085484	-63.336319	-0.567225	169.289783
9.750000	-0.573863	168.271814	-36.034295	-64.755969	-36.034295	-64.755969	-0.573724	168.297158
9.800000	-0.580399	167.274383	-35.984305	-66.172089	-35.984305	-66.172089	-0.580257	167.300485
9.850000	-0.586966	166.272804	-35.935512	-67.584606	-35.935512	-67.584606	-0.586822	166.299682
9.900000	-0.593564	165.266994	-35.887911	-68.993450	-35.887911	-68.993450	-0.593418	165.294665
9.950000	-0.600192	164.256867	-35.841497	-70.398547	-35.841497	-70.398547	-0.600043	164.285351
10.000000	-0.606847	163.242342	-35.796265	-71.799825	-35.796265	-71.799825	-0.606696	163.271656
