! freq	dB(S11)	phase(S11)	dB(S12)	phase(S12)	
!     	dB(S21)	phase(S21)	dB(S22)	phase(S22)	
!S-par simulation data
#  GHz  S  DB  R 50
0.000000	-0.000000	0.000000	-368.419615	0.000000	-368.419615	0.000000	-0.000000	0.000000
0.050000	-0.000102	-0.761176	-113.571046	78.790099	-113.571046	78.790099	-0.000100	-0.861794
0.100000	-0.000405	-1.522093	-108.778009	76.193912	-108.778009	76.193912	-0.000399	-1.723358
0.150000	-0.000893	-2.282516	-106.031194	76.743179	-106.031194	76.743179	-0.000884	-2.584479
0.200000	-0.001545	-3.042256	-104.026040	77.672930	-104.026040	77.672930	-0.001539	-3.444972
0.250000	-0.002344	-3.801108	-102.461332	78.403960	-102.461332	78.403960	-0.002356	-4.304627
0.300000	-0.003250	-4.559051	-101.204286	78.931374	-101.204286	78.931374	-0.003298	-5.163390
0.350000	-0.004245	-5.315995	-100.186983	79.314190	-100.186983	79.314190	-0.004349	-6.021137
0.400000	-0.005303	-6.071919	-99.365432	79.629147	-99.365432	79.629147	-0.005488	-6.877806
0.450000	-0.006405	-6.826834	-98.710757	79.947226	-98.710757	79.947226	-0.006694	-7.733362
0.500000	-0.007532	-7.580766	-98.203744	80.335475	-98.203744	80.335475	-0.007949	-8.587792
0.550000	-0.008673	-8.333756	-97.831815	80.862693	-97.831815	80.862693	-0.009236	-9.441102
0.600000	-0.009815	-9.085849	-97.587170	81.606221	-97.587170	81.606221	-0.010542	-10.293309
0.650000	-0.010952	-9.837089	-97.465466	82.660053	-97.465466	82.660053	-0.011855	-11.144438
0.700000	-0.012080	-10.587518	-97.464626	84.145305	-97.464626	84.145305	-0.013167	-11.994516
0.750000	-0.013194	-11.337170	-97.583257	86.224391	-97.583257	86.224391	-0.014471	-12.843572
0.800000	-0.014294	-12.086076	-97.817889	89.119927	-97.817889	89.119927	-0.015762	-13.691633
0.850000	-0.015379	-12.834258	-98.157527	93.136739	-98.157527	93.136739	-0.017038	-14.538723
0.900000	-0.016449	-13.581732	-98.573009	98.675417	-98.573009	98.675417	-0.018295	-15.384861
0.950000	-0.017504	-14.328510	-98.998340	106.198825	-98.998340	106.198825	-0.019535	-16.230063
1.000000	-0.018547	-15.074597	-99.307155	116.067473	-99.307155	116.067473	-0.020755	-17.074339
1.050000	-0.019577	-15.819993	-99.309970	128.165452	-99.309970	128.165452	-0.021957	-17.917695
1.100000	-0.020596	-16.564698	-98.824003	141.482135	-98.824003	141.482135	-0.023142	-18.760132
1.150000	-0.021606	-17.308706	-97.806620	154.270519	-97.806620	154.270519	-0.024310	-19.601649
1.200000	-0.022607	-18.052008	-96.396536	165.054497	-96.396536	165.054497	-0.025463	-20.442240
1.250000	-0.023600	-18.794594	-94.795649	173.353927	-94.795649	173.353927	-0.026602	-21.281896
1.300000	-0.024586	-19.536421	-93.144697	179.354740	-93.144697	179.354740	-0.027727	-22.120564
1.350000	-0.025567	-20.277508	-91.541531	-176.343680	-91.541531	-176.343680	-0.028842	-22.958272
1.400000	-0.026543	-21.017840	-90.018241	-173.309347	-90.018241	-173.309347	-0.029947	-23.795004
1.450000	-0.027515	-21.757402	-88.583534	-171.212790	-88.583534	-171.212790	-0.031043	-24.630743
1.500000	-0.028483	-22.496180	-87.235575	-169.814997	-87.235575	-169.814997	-0.032132	-25.465472
1.550000	-0.029448	-23.234159	-85.968351	-168.944883	-85.968351	-168.944883	-0.033214	-26.299170
1.600000	-0.030411	-23.971323	-84.774613	-168.479573	-84.774613	-168.479573	-0.034292	-27.131820
1.650000	-0.031372	-24.707656	-83.647162	-168.329839	-83.647162	-168.329839	-0.035365	-27.963400
1.700000	-0.032331	-25.442840	-82.554580	-168.494139	-82.554580	-168.494139	-0.036434	-28.793502
1.750000	-0.033290	-26.177578	-81.551466	-168.770832	-81.551466	-168.770832	-0.037502	-29.623028
1.800000	-0.034247	-26.911239	-80.581716	-169.232171	-80.581716	-169.232171	-0.038568	-30.451167
1.850000	-0.035204	-27.644131	-79.664149	-169.825401	-79.664149	-169.825401	-0.039633	-31.278315
1.900000	-0.036161	-28.376067	-78.783281	-170.526253	-78.783281	-170.526253	-0.040697	-32.104230
1.950000	-0.037118	-29.107047	-77.937291	-171.334728	-77.937291	-171.334728	-0.041761	-32.928910
2.000000	-0.038076	-29.837202	-77.129958	-172.206794	-77.129958	-172.206794	-0.042827	-33.752526
2.050000	-0.039035	-30.566203	-76.344643	-173.167889	-76.344643	-173.167889	-0.043893	-34.574652
2.100000	-0.039994	-31.294695	-75.605574	-174.158277	-75.605574	-174.158277	-0.044960	-35.396121
2.150000	-0.040955	-32.021869	-74.879258	-175.221295	-74.879258	-175.221295	-0.046030	-36.215885
2.200000	-0.041917	-32.748045	-74.177390	-176.328908	-74.177390	-176.328908	-0.047102	-37.034360
2.250000	-0.042882	-33.473209	-73.498309	-177.475658	-73.498309	-177.475658	-0.048177	-37.851526
2.300000	-0.043849	-34.197347	-72.840523	-178.656929	-72.840523	-178.656929	-0.049256	-38.667366
2.350000	-0.044818	-34.920445	-72.202689	-179.868791	-72.202689	-179.868791	-0.050338	-39.481863
2.400000	-0.045791	-35.642490	-71.583595	178.892126	-71.583595	178.892126	-0.051424	-40.294998
2.450000	-0.046766	-36.363468	-70.982141	177.628726	-70.982141	177.628726	-0.052514	-41.106757
2.500000	-0.047745	-37.083367	-70.397328	176.343528	-70.397328	176.343528	-0.053609	-41.917122
2.550000	-0.048729	-37.802125	-69.827310	175.037965	-69.827310	175.037965	-0.054710	-42.726017
2.600000	-0.049716	-38.519777	-69.272280	173.714874	-69.272280	173.714874	-0.055815	-43.533486
2.650000	-0.050708	-39.236311	-68.731462	172.375920	-68.731462	172.375920	-0.056927	-44.339515
2.700000	-0.051705	-39.951714	-68.204141	171.022576	-68.204141	171.022576	-0.058044	-45.144091
2.750000	-0.052706	-40.665975	-67.689660	169.656152	-67.689660	169.656152	-0.059168	-45.947200
2.800000	-0.053714	-41.379083	-67.187413	168.277816	-67.187413	168.277816	-0.060298	-46.748828
2.850000	-0.054727	-42.091026	-66.696836	166.888615	-66.696836	166.888615	-0.061436	-47.548964
2.900000	-0.055747	-42.801792	-66.217407	165.489487	-66.217407	165.489487	-0.062581	-48.347595
2.950000	-0.056773	-43.511372	-65.748641	164.081280	-65.748641	164.081280	-0.063733	-49.144709
3.000000	-0.057805	-44.219755	-65.290084	162.664758	-65.290084	162.664758	-0.064894	-49.940297
3.050000	-0.058846	-44.926931	-64.841316	161.240614	-64.841316	161.240614	-0.066063	-50.734346
3.100000	-0.059893	-45.632889	-64.401939	159.809481	-64.401939	159.809481	-0.067241	-51.526848
3.150000	-0.060949	-46.337621	-63.971585	158.371931	-63.971585	158.371931	-0.068428	-52.317793
3.200000	-0.062013	-47.041117	-63.549906	156.928491	-63.549906	156.928491	-0.069624	-53.107172
3.250000	-0.063086	-47.743367	-63.136575	155.479641	-63.136575	155.479641	-0.070831	-53.894975
3.300000	-0.064168	-48.444363	-62.731285	154.025822	-62.731285	154.025822	-0.072048	-54.681196
3.350000	-0.065261	-49.143875	-62.331936	152.566758	-62.331936	152.566758	-0.073277	-55.465548
3.400000	-0.066364	-49.842061	-61.939791	151.103336	-61.939791	151.103336	-0.074518	-56.248233
3.450000	-0.067472	-50.539577	-61.559590	149.638037	-61.559590	149.638037	-0.075765	-57.030078
3.500000	-0.068597	-51.235083	-61.180973	148.167109	-61.180973	148.167109	-0.077031	-57.809406
3.550000	-0.069726	-51.930136	-60.815084	146.695141	-60.815084	146.695141	-0.078301	-58.588170
3.600000	-0.070874	-52.622930	-60.449173	145.217975	-60.449173	145.217975	-0.079593	-59.364116
3.650000	-0.072024	-53.315496	-60.096621	143.740380	-60.096621	143.740380	-0.080887	-60.139779
3.700000	-0.073197	-54.005550	-59.742671	142.258066	-59.742671	142.258066	-0.082208	-60.912326
3.750000	-0.074370	-54.695604	-59.402582	140.775751	-59.402582	140.775751	-0.083528	-61.684872
3.800000	-0.075570	-55.382892	-59.059917	139.289231	-59.059917	139.289231	-0.084878	-62.454003
3.850000	-0.076769	-56.070180	-58.730259	137.802711	-58.730259	137.802711	-0.086229	-63.223133
3.900000	-0.077995	-56.754911	-58.399504	136.313089	-58.399504	136.313089	-0.087608	-63.989124
3.950000	-0.079222	-57.439411	-58.079731	134.823185	-58.079731	134.823185	-0.088990	-64.754828
4.000000	-0.080475	-58.121569	-57.760150	133.331062	-57.760150	133.331062	-0.090401	-65.517672
4.050000	-0.081732	-58.803259	-57.449759	131.838495	-57.449759	131.838495	-0.091817	-66.279944
4.100000	-0.083013	-59.482830	-57.140689	130.344407	-57.140689	130.344407	-0.093259	-67.039640
4.150000	-0.084302	-60.161694	-56.839217	128.849812	-56.839217	128.849812	-0.094711	-67.798477
4.200000	-0.085613	-60.838664	-56.540049	127.354242	-56.540049	127.354242	-0.096188	-68.555026
4.250000	-0.086935	-61.514687	-56.247068	125.858183	-56.247068	125.858183	-0.097677	-69.310430
4.300000	-0.088277	-62.189046	-55.957248	124.361563	-55.957248	124.361563	-0.099190	-70.063835
4.350000	-0.089633	-62.862216	-55.672362	122.864542	-55.672362	122.864542	-0.100719	-70.815812
4.400000	-0.091008	-63.533956	-55.391380	121.367266	-55.391380	121.367266	-0.102268	-71.566081
4.450000	-0.092401	-64.204265	-55.114221	119.869734	-55.114221	119.869734	-0.103838	-72.314641
4.500000	-0.093809	-64.873379	-54.841611	118.372159	-54.841611	118.372159	-0.105427	-73.061784
4.550000	-0.095240	-65.540820	-54.571837	116.874522	-54.571837	116.874522	-0.107041	-73.806942
4.600000	-0.096684	-66.207304	-54.307168	115.376973	-54.307168	115.376973	-0.108670	-74.550971
4.650000	-0.098154	-66.871874	-54.044459	113.879600	-54.044459	113.879600	-0.110329	-75.292745
4.700000	-0.099635	-67.535725	-53.787334	112.382377	-53.787334	112.382377	-0.111999	-76.033678
4.750000	-0.101146	-68.197423	-53.531393	110.885604	-53.531393	110.885604	-0.113706	-76.772090
4.800000	-0.102665	-68.858642	-53.281443	109.388982	-53.281443	109.388982	-0.115420	-77.509946
4.850000	-0.104219	-69.517469	-53.031992	107.893119	-53.031992	107.893119	-0.117175	-78.245021
4.900000	-0.105778	-70.176057	-52.788877	106.397355	-52.788877	106.397355	-0.118935	-78.979822
4.950000	-0.107376	-70.832018	-52.545655	104.902688	-52.545655	104.902688	-0.120741	-79.711592
5.000000	-0.108976	-71.487979	-52.309058	103.408021	-52.309058	103.408021	-0.122548	-80.443362
5.050000	-0.110621	-72.141081	-52.071820	101.914819	-52.071820	101.914819	-0.124407	-81.171861
5.100000	-0.112266	-72.794182	-51.840890	100.421617	-51.840890	100.421617	-0.126266	-81.900360
5.150000	-0.113955	-73.444671	-51.609964	98.929989	-51.609964	98.929989	-0.128176	-82.625895
5.200000	-0.115649	-74.094923	-51.384490	97.438505	-51.384490	97.438505	-0.130090	-83.351160
5.250000	-0.117383	-74.742809	-51.159597	95.948653	-51.159597	95.948653	-0.132051	-84.073766
5.300000	-0.119126	-75.390223	-50.939382	94.459129	-50.939382	94.459129	-0.134021	-84.795840
5.350000	-0.120907	-76.035518	-50.720261	92.971249	-50.720261	92.971249	-0.136035	-85.515555
5.400000	-0.122702	-76.680108	-50.505117	91.483919	-50.505117	91.483919	-0.138064	-86.234483
5.450000	-0.124531	-77.322825	-50.291525	89.998203	-50.291525	89.998203	-0.140133	-86.951347
5.500000	-0.126378	-77.964607	-50.081278	88.513294	-50.081278	88.513294	-0.142222	-87.667179
5.550000	-0.128258	-78.604763	-49.872986	87.029932	-49.872986	87.029932	-0.144347	-88.381237
5.600000	-0.130160	-79.243756	-49.667469	85.547674	-49.667469	85.547674	-0.146498	-89.094027
5.650000	-0.132090	-79.881365	-49.464264	84.066856	-49.464264	84.066856	-0.148681	-89.805326
5.700000	-0.134048	-80.517591	-49.263322	82.587477	-49.263322	82.587477	-0.150895	-90.515132
5.750000	-0.136031	-81.152673	-49.065004	81.109397	-49.065004	81.109397	-0.153137	-91.223720
5.800000	-0.138048	-81.786153	-48.868488	79.633133	-48.868488	79.633133	-0.155417	-91.930604
5.850000	-0.140085	-82.418728	-48.674870	78.157988	-48.674870	78.157988	-0.157720	-92.636536
5.900000	-0.142161	-83.049489	-48.482639	76.685083	-48.482639	76.685083	-0.160066	-93.340565
5.950000	-0.144254	-83.679578	-48.293545	75.213083	-48.293545	75.213083	-0.162431	-94.043897
6.000000	-0.146392	-84.307647	-48.105468	73.743795	-48.105468	73.743795	-0.164846	-94.745140
6.050000	-0.148541	-84.935272	-47.920731	72.275156	-47.920731	72.275156	-0.167274	-95.445932
6.100000	-0.150743	-85.560679	-47.736682	70.809762	-47.736682	70.809762	-0.169760	-96.144466
6.150000	-0.152950	-86.185866	-47.556148	69.344718	-47.556148	69.344718	-0.172252	-96.842781
6.200000	-0.155217	-86.808641	-47.376008	67.883521	-47.376008	67.883521	-0.174810	-97.538686
6.250000	-0.157485	-87.431416	-47.199528	66.422324	-47.199528	66.422324	-0.177369	-98.234592
6.300000	-0.159818	-88.051592	-47.023185	64.965657	-47.023185	64.965657	-0.180000	-98.927955
6.350000	-0.162153	-88.671768	-46.850351	63.508990	-46.850351	63.508990	-0.182632	-99.621318
6.400000	-0.164550	-89.289594	-46.677969	62.056820	-46.677969	62.056820	-0.185332	-100.312435
6.450000	-0.166953	-89.907206	-46.508681	60.605058	-46.508681	60.605058	-0.188039	-101.003348
6.500000	-0.169414	-90.522712	-46.340126	59.157739	-46.340126	59.157739	-0.190810	-101.692301
6.550000	-0.171887	-91.137798	-46.174289	57.711310	-46.174289	57.711310	-0.193594	-102.380863
6.600000	-0.174414	-91.751016	-46.009437	56.269248	-46.009437	56.269248	-0.196436	-103.067741
6.650000	-0.176960	-92.363612	-45.846960	54.828642	-45.846960	54.828642	-0.199298	-103.754058
6.700000	-0.179555	-92.974576	-45.685691	53.392303	-45.685691	53.392303	-0.202213	-104.438957
6.750000	-0.182174	-93.584723	-45.526490	51.958096	-45.526490	51.958096	-0.205155	-105.123145
6.800000	-0.184838	-94.193466	-45.368691	50.528022	-45.368691	50.528022	-0.208144	-105.806166
6.850000	-0.187534	-94.801206	-45.212682	49.100899	-45.212682	49.100899	-0.211167	-106.488353
6.900000	-0.190268	-95.407764	-45.058246	47.677728	-45.058246	47.677728	-0.214232	-107.169609
6.950000	-0.193041	-96.013139	-44.905349	46.258510	-44.905349	46.258510	-0.217338	-107.849933
7.000000	-0.195847	-96.617548	-44.754173	44.843005	-44.754173	44.843005	-0.220479	-108.529547
7.050000	-0.198699	-97.220603	-44.604311	43.432696	-44.604311	43.432696	-0.223670	-109.208165
7.100000	-0.201579	-97.822900	-44.456296	42.025772	-44.456296	42.025772	-0.226890	-109.886273
7.150000	-0.204513	-98.423682	-44.309392	40.625619	-44.309392	40.625619	-0.230167	-110.563362
7.200000	-0.207467	-99.023906	-44.164441	39.228398	-44.164441	39.228398	-0.233467	-111.240118
7.250000	-0.210484	-99.622460	-44.020418	37.839972	-44.020418	37.839972	-0.236833	-111.915881
7.300000	-0.213516	-100.220651	-43.878434	36.453838	-43.878434	36.453838	-0.240215	-112.591462
7.350000	-0.216617	-100.817026	-43.737210	35.079161	-43.737210	35.079161	-0.243672	-113.266138
7.400000	-0.219727	-101.413224	-43.598098	33.705849	-43.598098	33.705849	-0.247137	-113.940747
7.450000	-0.222916	-102.007469	-43.459581	32.347567	-43.459581	32.347567	-0.250689	-114.614626
7.500000	-0.226106	-102.601714	-43.323238	30.989285	-43.323238	30.989285	-0.254242	-115.288505
7.550000	-0.229385	-103.193879	-43.187318	29.650947	-43.187318	29.650947	-0.257892	-115.961946
7.600000	-0.232664	-103.786044	-43.053491	28.312609	-43.053491	28.312609	-0.261544	-116.635387
7.650000	-0.236027	-104.376348	-42.920161	26.997022	-42.920161	26.997022	-0.265291	-117.308850
7.700000	-0.239398	-104.966483	-42.788710	25.683502	-42.788710	25.683502	-0.269049	-117.982314
7.750000	-0.242847	-105.554968	-42.657766	24.396407	-42.657766	24.396407	-0.272903	-118.656312
7.800000	-0.246313	-106.143123	-42.528481	23.114598	-42.528481	23.114598	-0.276777	-119.330416
7.850000	-0.249851	-106.729828	-42.399622	21.864120	-42.399622	21.864120	-0.280753	-120.005643
7.900000	-0.253415	-107.316050	-42.272163	20.624087	-42.272163	20.624087	-0.284763	-120.681245
7.950000	-0.257046	-107.901014	-42.144898	19.422095	-42.144898	19.422095	-0.288886	-121.358686
8.000000	-0.260712	-108.485349	-42.018658	18.239124	-42.018658	18.239124	-0.293066	-122.037046
8.050000	-0.264440	-109.068604	-41.892119	17.103614	-41.892119	17.103614	-0.297383	-122.718157
8.100000	-0.268214	-109.651087	-41.765914	16.002004	-41.765914	16.002004	-0.301800	-123.401234
8.150000	-0.272045	-110.232653	-41.638422	14.961466	-41.638422	14.961466	-0.306406	-124.088302
8.200000	-0.275935	-110.813302	-41.509726	13.981999	-41.509726	13.981999	-0.311201	-124.779363
8.250000	-0.279879	-111.393177	-41.377714	13.083811	-41.377714	13.083811	-0.316297	-125.476221
8.300000	-0.283899	-111.971968	-41.240521	12.299411	-41.240521	12.299411	-0.321812	-126.181195
8.350000	-0.287951	-112.550346	-41.100694	11.576044	-41.100694	11.576044	-0.327598	-126.890769
8.400000	-0.292107	-113.127363	-40.944011	11.076541	-40.944011	11.076541	-0.334468	-127.617573
8.450000	-0.296347	-113.703347	-40.766291	10.797404	-40.766291	10.797404	-0.342686	-128.362340
8.500000	-0.300691	-114.278029	-40.547406	10.840724	-40.547406	10.840724	-0.353476	-129.135298
8.550000	-0.305148	-114.851145	-40.256080	11.284246	-40.256080	11.284246	-0.368909	-129.947710
8.600000	-0.309722	-115.422126	-39.837006	12.180710	-39.837006	12.180710	-0.393122	-130.815158
8.650000	-0.314375	-115.989369	-39.151146	13.413706	-39.151146	13.413706	-0.438173	-131.762158
8.700000	-0.318752	-116.549940	-37.976243	13.737780	-37.976243	13.737780	-0.533686	-132.750969
8.750000	-0.321232	-117.102639	-36.256981	8.691722	-36.256981	8.691722	-0.729307	-133.307095
8.800000	-0.320275	-117.673221	-35.263430	-6.096018	-35.263430	-6.096018	-0.873989	-132.270833
8.850000	-0.322399	-118.272057	-36.079304	-18.975738	-36.079304	-18.975738	-0.724438	-131.551512
8.900000	-0.327704	-118.860528	-37.178889	-23.695462	-37.178889	-23.695462	-0.580291	-132.104938
8.950000	-0.333292	-119.438352	-37.892366	-24.900829	-37.892366	-24.900829	-0.507971	-132.948937
9.000000	-0.338658	-120.011382	-38.293265	-25.223544	-38.293265	-25.223544	-0.472976	-133.790711
9.050000	-0.343842	-120.582152	-38.509955	-25.480289	-38.509955	-25.480289	-0.455334	-134.592522
9.100000	-0.348931	-121.151728	-38.628501	-25.849426	-38.628501	-25.849426	-0.445801	-135.362997
9.150000	-0.353961	-121.720328	-38.676131	-26.381551	-38.676131	-26.381551	-0.441638	-136.105836
9.200000	-0.358972	-122.288152	-38.680795	-27.064510	-38.680795	-27.064510	-0.440551	-136.828735
9.250000	-0.363986	-122.855539	-38.666619	-27.828486	-38.666619	-27.828486	-0.440785	-137.541984
9.300000	-0.369010	-123.422370	-38.632230	-28.690926	-38.632230	-28.690926	-0.442428	-138.244151
9.350000	-0.374064	-123.988589	-38.582800	-29.643222	-38.582800	-29.643222	-0.445127	-138.937063
9.400000	-0.379144	-124.554418	-38.526238	-30.644452	-38.526238	-30.644452	-0.448348	-139.625182
9.450000	-0.384253	-125.119867	-38.463719	-31.689721	-38.463719	-31.689721	-0.452019	-140.309090
9.500000	-0.389409	-125.684797	-38.395013	-32.785682	-38.395013	-32.785682	-0.456175	-140.988387
9.550000	-0.394606	-126.249333	-38.323027	-33.913275	-38.323027	-33.913275	-0.460622	-141.664976
9.600000	-0.399839	-126.813550	-38.248885	-35.064415	-38.248885	-35.064415	-0.465284	-142.339615
9.650000	-0.405114	-127.377430	-38.172807	-36.238313	-38.172807	-36.238313	-0.470155	-143.012438
9.700000	-0.410447	-127.940867	-38.094652	-37.437686	-38.094652	-37.437686	-0.475263	-143.683406
9.750000	-0.415821	-128.504037	-38.015787	-38.650541	-38.015787	-38.650541	-0.480501	-144.353492
9.800000	-0.421235	-129.066948	-37.936350	-39.875891	-37.936350	-39.875891	-0.485863	-145.022806
9.850000	-0.426704	-129.629530	-37.856170	-41.115774	-37.856170	-41.115774	-0.491376	-145.691340
9.900000	-0.432225	-130.191831	-37.775628	-42.366727	-37.775628	-42.366727	-0.497012	-146.359429
9.950000	-0.437788	-130.753927	-37.695069	-43.625400	-37.695069	-43.625400	-0.502740	-147.027284
10.000000	-0.443393	-131.315826	-37.614555	-44.891234	-37.614555	-44.891234	-0.508556	-147.694974
