! freq	dB(S11)	phase(S11)	dB(S12)	phase(S12)	
!     	dB(S21)	phase(S21)	dB(S22)	phase(S22)	
!S-par simulation data
#  GHz  S  DB  R 50
0.000000	-0.000000	0.000000	-312.486369	0.000000	-312.486369	0.000000	-0.000000	0.000000
0.050000	-0.000201	-1.632744	-91.913637	79.291163	-91.913637	79.291163	-0.000229	-1.624202
0.100000	-0.000793	-3.264924	-86.944606	74.687606	-86.944606	74.687606	-0.000902	-3.247769
0.150000	-0.001761	-4.895988	-84.201489	73.544028	-84.201489	73.544028	-0.001991	-4.870100
0.200000	-0.003063	-6.525486	-82.205078	73.301936	-82.205078	73.301936	-0.003438	-6.490742
0.250000	-0.004677	-8.152872	-80.608578	73.119360	-80.608578	73.119360	-0.005202	-8.109189
0.300000	-0.006530	-9.778005	-79.279170	72.793434	-79.279170	72.793434	-0.007193	-9.725396
0.350000	-0.008588	-11.400542	-78.149966	72.307095	-78.149966	72.307095	-0.009365	-11.339135
0.400000	-0.010806	-13.020287	-77.178712	71.687651	-77.178712	71.687651	-0.011664	-12.950349
0.450000	-0.013143	-14.637104	-76.336599	70.970799	-76.336599	70.970799	-0.014044	-14.559044
0.500000	-0.015560	-16.250903	-75.602908	70.189314	-75.602908	70.189314	-0.016469	-16.165267
0.550000	-0.018026	-17.861629	-74.962249	69.371210	-74.962249	69.371210	-0.018910	-17.769088
0.600000	-0.020514	-19.469249	-74.402925	68.540428	-74.402925	68.540428	-0.021346	-19.370582
0.650000	-0.023007	-21.074153	-73.910479	67.714325	-73.910479	67.714325	-0.023768	-20.970106
0.700000	-0.025486	-22.675477	-73.489034	66.917518	-73.489034	66.917518	-0.026159	-22.567122
0.750000	-0.027938	-24.273651	-73.127199	66.167107	-73.127199	66.167107	-0.028517	-24.162000
0.800000	-0.030356	-25.868658	-72.820457	65.481378	-72.820457	65.481378	-0.030839	-25.754774
0.850000	-0.032732	-27.460197	-72.568816	64.888716	-72.568816	64.888716	-0.033122	-27.345288
0.900000	-0.035070	-29.048831	-72.361362	64.391421	-72.361362	64.391421	-0.035374	-28.933934
0.950000	-0.037366	-30.634213	-72.199640	64.020339	-72.199640	64.020339	-0.037592	-30.520512
1.000000	-0.039619	-32.216300	-72.081298	63.800537	-72.081298	63.800537	-0.039780	-32.105013
1.050000	-0.041831	-33.795045	-72.004053	63.760402	-72.004053	63.760402	-0.041939	-33.687425
1.100000	-0.044004	-35.370395	-71.965479	63.932294	-71.965479	63.932294	-0.044071	-35.267729
1.150000	-0.046139	-36.942292	-71.962743	64.353130	-71.962743	64.353130	-0.046180	-36.845906
1.200000	-0.048239	-38.510677	-71.992270	65.064770	-71.992270	65.064770	-0.048266	-38.421930
1.250000	-0.050307	-40.075487	-72.049316	66.113998	-72.049316	66.113998	-0.050333	-39.995779
1.300000	-0.052343	-41.636500	-72.127874	67.571100	-72.127874	67.571100	-0.052381	-41.567330
1.350000	-0.054352	-43.193807	-72.217557	69.473986	-72.217557	69.473986	-0.054412	-43.136655
1.400000	-0.056335	-44.747346	-72.306017	71.871393	-72.306017	71.871393	-0.056430	-44.703733
1.450000	-0.058295	-46.297056	-72.377237	74.799799	-72.377237	74.799799	-0.058434	-46.268542
1.500000	-0.060234	-47.842879	-72.411502	78.271416	-72.411502	78.271416	-0.060426	-47.831065
1.550000	-0.062155	-49.384758	-72.386342	82.259918	-72.386342	82.259918	-0.062408	-49.391286
1.600000	-0.064058	-50.922639	-72.278840	86.687958	-72.278840	86.687958	-0.064381	-50.949192
1.650000	-0.065945	-52.456473	-72.069274	91.422953	-72.069274	91.422953	-0.066345	-52.504775
1.700000	-0.067819	-53.986211	-71.745202	96.287052	-71.745202	96.287052	-0.068302	-54.058026
1.750000	-0.069681	-55.511810	-71.304411	101.081746	-71.304411	101.081746	-0.070253	-55.608942
1.800000	-0.071531	-57.033230	-70.755335	105.619682	-70.755335	105.619682	-0.072199	-57.157523
1.850000	-0.073372	-58.550436	-70.114740	109.752087	-70.114740	109.752087	-0.074141	-58.703773
1.900000	-0.075204	-60.063396	-69.403822	113.383087	-69.403822	113.383087	-0.076079	-60.247698
1.950000	-0.077029	-61.572082	-68.644335	116.469504	-68.644335	116.469504	-0.078016	-61.789308
2.000000	-0.078848	-63.076471	-67.855852	119.010685	-67.855852	119.010685	-0.079952	-63.328617
2.050000	-0.080663	-64.576542	-67.054410	121.034708	-67.054410	121.034708	-0.081887	-64.865642
2.100000	-0.082473	-66.072283	-66.252264	122.585665	-66.252264	122.585665	-0.083824	-66.400405
2.150000	-0.084281	-67.563681	-65.458262	123.714121	-65.458262	123.714121	-0.085762	-67.932929
2.200000	-0.086087	-69.050730	-64.678471	124.470961	-64.678471	124.470961	-0.087704	-69.463242
2.250000	-0.087892	-70.533429	-63.916832	124.903942	-63.916832	124.903942	-0.089650	-70.991378
2.300000	-0.089697	-72.011779	-63.175718	125.056087	-63.175718	125.056087	-0.091600	-72.517371
2.350000	-0.091504	-73.485786	-62.456395	124.965207	-62.456395	124.965207	-0.093557	-74.041260
2.400000	-0.093312	-74.955461	-61.759356	124.664033	-61.759356	124.664033	-0.095521	-75.563088
2.450000	-0.095124	-76.420818	-61.084573	124.180660	-61.084573	124.180660	-0.097494	-77.082901
2.500000	-0.096940	-77.881877	-60.431674	123.539090	-60.431674	123.539090	-0.099475	-78.600751
2.550000	-0.098761	-79.338474	-59.799035	122.754622	-59.799035	122.754622	-0.101468	-80.116609
2.600000	-0.100588	-80.790825	-59.187150	121.851219	-59.187150	121.851219	-0.103472	-81.630620
2.650000	-0.102422	-82.238959	-58.595195	120.843497	-58.595195	120.843497	-0.105488	-83.142845
2.700000	-0.104263	-83.682912	-58.022324	119.743994	-58.022324	119.743994	-0.107519	-84.653350
2.750000	-0.106114	-85.122723	-57.467690	118.563489	-57.467690	118.563489	-0.109564	-86.162203
2.800000	-0.107973	-86.558434	-56.930466	117.311279	-56.930466	117.311279	-0.111624	-87.669476
2.850000	-0.109844	-87.990091	-56.409850	115.995410	-56.409850	115.995410	-0.113701	-89.175246
2.900000	-0.111725	-89.417742	-55.905077	114.622865	-55.905077	114.622865	-0.115796	-90.679591
2.950000	-0.113619	-90.841442	-55.415417	113.199725	-55.415417	113.199725	-0.117910	-92.182596
3.000000	-0.115526	-92.261247	-54.940181	111.731304	-54.940181	111.731304	-0.120044	-93.684347
3.050000	-0.117446	-93.677216	-54.478716	110.222258	-54.478716	110.222258	-0.122198	-95.184933
3.100000	-0.119382	-95.089412	-54.030410	108.676680	-54.030410	108.676680	-0.124374	-96.684449
3.150000	-0.121333	-96.497903	-53.594684	107.098180	-53.594684	107.098180	-0.126573	-98.182990
3.200000	-0.123301	-97.902756	-53.170996	105.489948	-53.170996	105.489948	-0.128796	-99.680659
3.250000	-0.125286	-99.304045	-52.758835	103.854810	-52.758835	103.854810	-0.131043	-101.177557
3.300000	-0.127289	-100.701845	-52.357723	102.195279	-52.357723	102.195279	-0.133315	-102.673793
3.350000	-0.129311	-102.096235	-51.967210	100.513593	-51.967210	100.513593	-0.135614	-104.169477
3.400000	-0.131353	-103.487296	-51.586871	98.811748	-51.586871	98.811748	-0.137941	-105.664722
3.450000	-0.133415	-104.875112	-51.216310	97.091529	-51.216310	97.091529	-0.140295	-107.159646
3.500000	-0.135499	-106.259769	-50.855152	95.354536	-50.855152	95.354536	-0.142679	-108.654368
3.550000	-0.137604	-107.641359	-50.503046	93.602205	-50.503046	93.602205	-0.145092	-110.149012
3.600000	-0.139733	-109.019971	-50.159658	91.835825	-50.159658	91.835825	-0.147536	-111.643705
3.650000	-0.141884	-110.395703	-49.824678	90.056557	-49.824678	90.056557	-0.150012	-113.138575
3.700000	-0.144060	-111.768649	-49.497810	88.265446	-49.497810	88.265446	-0.152520	-114.633757
3.750000	-0.146261	-113.138911	-49.178778	86.463437	-49.178778	86.463437	-0.155061	-116.129384
3.800000	-0.148489	-114.506483	-48.867163	84.650979	-48.867163	84.650979	-0.157637	-117.625629
3.850000	-0.150743	-115.871586	-48.562899	82.829306	-48.562899	82.829306	-0.160247	-119.122614
3.900000	-0.153024	-117.234327	-48.265749	80.999104	-48.265749	80.999104	-0.162893	-120.620484
3.950000	-0.155333	-118.594815	-47.975491	79.160992	-47.975491	79.160992	-0.165574	-122.119387
4.000000	-0.157669	-119.953162	-47.691915	77.315534	-47.691915	77.315534	-0.168293	-123.619474
4.050000	-0.160035	-121.309481	-47.414824	75.463239	-47.414824	75.463239	-0.171048	-125.120897
4.100000	-0.162430	-122.663887	-47.144028	73.604566	-47.144028	73.604566	-0.173840	-126.623813
4.150000	-0.164855	-124.016497	-46.879352	71.739934	-46.879352	71.739934	-0.176671	-128.128382
4.200000	-0.167311	-125.367432	-46.620627	69.869720	-46.620627	69.869720	-0.179541	-129.634764
4.250000	-0.169797	-126.716812	-46.367695	67.994264	-46.367695	67.994264	-0.182450	-131.143123
4.300000	-0.172315	-128.064760	-46.120406	66.113876	-46.120406	66.113876	-0.185399	-132.653626
4.350000	-0.174865	-129.411401	-45.878619	64.228835	-45.878619	64.228835	-0.188387	-134.166442
4.400000	-0.177447	-130.756862	-45.642200	62.339393	-45.642200	62.339393	-0.191417	-135.681742
4.450000	-0.180063	-132.101271	-45.411022	60.445776	-45.411022	60.445776	-0.194487	-137.199700
4.500000	-0.182712	-133.444759	-45.184967	58.548189	-45.184967	58.548189	-0.197598	-138.720492
4.550000	-0.185394	-134.787457	-44.963920	56.646815	-44.963920	56.646815	-0.200751	-140.244296
4.600000	-0.188111	-136.129499	-44.747777	54.741820	-44.747777	54.741820	-0.203945	-141.771293
4.650000	-0.190862	-137.471019	-44.536436	52.833352	-44.536436	52.833352	-0.207182	-143.301664
4.700000	-0.193647	-138.812154	-44.329804	50.921542	-44.329804	50.921542	-0.210460	-144.835593
4.750000	-0.196468	-140.153042	-44.127792	49.006509	-44.127792	49.006509	-0.213781	-146.373268
4.800000	-0.199325	-141.493823	-43.930316	47.088356	-43.930316	47.088356	-0.217144	-147.914875
4.850000	-0.202217	-142.834637	-43.737298	45.167179	-43.737298	45.167179	-0.220550	-149.460605
4.900000	-0.205145	-144.175627	-43.548664	43.243057	-43.548664	43.243057	-0.223998	-151.010648
4.950000	-0.208109	-145.516936	-43.364346	41.316063	-43.364346	41.316063	-0.227488	-152.565198
5.000000	-0.211109	-146.858709	-43.184281	39.386260	-43.184281	39.386260	-0.231021	-154.124447
5.050000	-0.214147	-148.201127	-43.008436	37.453586	-43.008436	37.453586	-0.234597	-155.688814
5.100000	-0.217222	-149.544317	-42.836739	35.518208	-42.836739	35.518208	-0.238215	-157.258291
5.150000	-0.220334	-150.888427	-42.669138	33.580167	-42.669138	33.580167	-0.241875	-158.833075
5.200000	-0.223483	-152.233609	-42.505585	31.639496	-42.505585	31.639496	-0.245576	-160.413365
5.250000	-0.226668	-153.580013	-42.346037	29.696222	-42.346037	29.696222	-0.249319	-161.999358
5.300000	-0.229890	-154.927793	-42.190456	27.750370	-42.190456	27.750370	-0.253101	-163.591256
5.350000	-0.233150	-156.277101	-42.038804	25.801957	-42.038804	25.801957	-0.256924	-165.189257
5.400000	-0.236446	-157.628092	-41.891050	23.850997	-41.891050	23.850997	-0.260786	-166.793561
5.450000	-0.239778	-158.980922	-41.747166	21.897503	-41.747166	21.897503	-0.264686	-168.404369
5.500000	-0.243148	-160.335748	-41.607127	19.941480	-41.607127	19.941480	-0.268625	-170.021880
5.550000	-0.246554	-161.692727	-41.470911	17.982934	-41.470911	17.982934	-0.272601	-171.646292
5.600000	-0.249996	-163.052018	-41.338501	16.021865	-41.338501	16.021865	-0.276614	-173.277806
5.650000	-0.253475	-164.413781	-41.209882	14.058275	-41.209882	14.058275	-0.280662	-174.916618
5.700000	-0.256990	-165.778174	-41.085042	12.092159	-41.085042	12.092159	-0.284745	-176.562925
5.750000	-0.260540	-167.145360	-40.963975	10.123514	-40.963975	10.123514	-0.288862	-178.216921
5.800000	-0.264126	-168.515500	-40.846676	8.152334	-40.846676	8.152334	-0.293011	-179.878802
5.850000	-0.267744	-169.888469	-40.732938	6.178831	-40.732938	6.178831	-0.297190	178.451965
5.900000	-0.271400	-171.265028	-40.623192	4.202528	-40.623192	4.202528	-0.301401	176.773670
5.950000	-0.275090	-172.645035	-40.517223	2.223662	-40.517223	2.223662	-0.305641	175.086919
6.000000	-0.278815	-174.028652	-40.415041	0.242221	-40.415041	0.242221	-0.309908	173.391529
6.050000	-0.282572	-175.416044	-40.316657	-1.741805	-40.316657	-1.741805	-0.314201	171.687318
6.100000	-0.286363	-176.807377	-40.222088	-3.728429	-40.222088	-3.728429	-0.318519	169.974111
6.150000	-0.290186	-178.202815	-40.131354	-5.717666	-40.131354	-5.717666	-0.322859	168.251732
6.200000	-0.294041	-179.602525	-40.044477	-7.709530	-40.044477	-7.709530	-0.327221	166.520014
6.250000	-0.297927	178.993329	-39.961485	-9.704035	-39.961485	-9.704035	-0.331602	164.778792
6.300000	-0.301844	177.584477	-39.882479	-11.701255	-39.882479	-11.701255	-0.336001	163.027693
6.350000	-0.305791	176.170849	-39.807428	-13.701149	-39.807428	-13.701149	-0.340416	161.266770
6.400000	-0.309767	174.752281	-39.736370	-15.703734	-39.736370	-15.703734	-0.344844	159.495875
6.450000	-0.313771	173.328605	-39.669348	-17.709029	-39.669348	-17.709029	-0.349284	157.714866
6.500000	-0.317803	171.899659	-39.606408	-19.717052	-39.606408	-19.717052	-0.353734	155.923610
6.550000	-0.321861	170.465277	-39.547604	-21.727824	-39.547604	-21.727824	-0.358191	154.121977
6.600000	-0.325945	169.025295	-39.492989	-23.741368	-39.492989	-23.741368	-0.362655	152.309849
6.650000	-0.330053	167.579549	-39.442625	-25.757707	-39.442625	-25.757707	-0.367122	150.487113
6.700000	-0.334186	166.127878	-39.396578	-27.776869	-39.396578	-27.776869	-0.371590	148.653665
6.750000	-0.338341	164.670120	-39.354918	-29.798882	-39.354918	-29.798882	-0.376058	146.809410
6.800000	-0.342517	163.206114	-39.317723	-31.823781	-39.317723	-31.823781	-0.380523	144.954264
6.850000	-0.346715	161.735700	-39.285074	-33.851604	-39.285074	-33.851604	-0.384983	143.088149
6.900000	-0.350932	160.258648	-39.257111	-35.882427	-39.257111	-35.882427	-0.389436	141.210880
6.950000	-0.355167	158.774797	-39.233933	-37.916302	-39.233933	-37.916302	-0.393880	139.322400
7.000000	-0.359419	157.284062	-39.215592	-39.953258	-39.215592	-39.953258	-0.398313	137.422784
7.050000	-0.363687	155.786291	-39.202199	-41.993362	-39.202199	-41.993362	-0.402734	135.512001
7.100000	-0.367970	154.281334	-39.193870	-44.036698	-39.193870	-44.036698	-0.407140	133.590030
7.150000	-0.372266	152.769043	-39.190732	-46.083361	-39.190732	-46.083361	-0.411530	131.656860
7.200000	-0.376574	151.249271	-39.192919	-48.133465	-39.192919	-48.133465	-0.415902	129.712495
7.250000	-0.380893	149.721875	-39.200577	-50.187145	-39.200577	-50.187145	-0.420256	127.756950
7.300000	-0.385221	148.186716	-39.213861	-52.244560	-39.213861	-52.244560	-0.424590	125.790251
7.350000	-0.389556	146.643656	-39.232939	-54.305901	-39.232939	-54.305901	-0.428903	123.812439
7.400000	-0.393899	145.092563	-39.257991	-56.371393	-39.257991	-56.371393	-0.433195	121.823565
7.450000	-0.398246	143.533305	-39.289212	-58.441302	-39.289212	-58.441302	-0.437466	119.823692
7.500000	-0.402597	141.965756	-39.326811	-60.515946	-39.326811	-60.515946	-0.441715	117.812896
7.550000	-0.406951	140.389610	-39.371159	-62.595824	-39.371159	-62.595824	-0.445943	115.791032
7.600000	-0.411305	138.804930	-39.422367	-64.681287	-39.422367	-64.681287	-0.450152	113.758436
7.650000	-0.415659	137.211602	-39.480703	-66.772875	-39.480703	-66.772875	-0.454342	111.715218
7.700000	-0.420011	135.609519	-39.546459	-68.871230	-39.546459	-68.871230	-0.458516	109.661497
7.750000	-0.424360	133.998580	-39.619954	-70.977118	-39.619954	-70.977118	-0.462677	107.597400
7.800000	-0.428704	132.378688	-39.701539	-73.091449	-39.701539	-73.091449	-0.466829	105.523063
7.850000	-0.433043	130.749751	-39.791596	-75.215309	-39.791596	-75.215309	-0.470975	103.438628
7.900000	-0.437375	129.111686	-39.890551	-77.349995	-39.890551	-77.349995	-0.475121	101.344239
7.950000	-0.441698	127.464414	-39.998872	-79.497057	-39.998872	-79.497057	-0.479273	99.240043
8.000000	-0.446012	125.807865	-40.117081	-81.658351	-40.117081	-81.658351	-0.483439	97.126188
8.050000	-0.450316	124.141974	-40.245760	-83.836104	-40.245760	-83.836104	-0.487628	95.002818
8.100000	-0.454609	122.466685	-40.385560	-86.032996	-40.385560	-86.032996	-0.491849	92.870069
8.150000	-0.458889	120.781846	-40.537323	-88.252546	-40.537323	-88.252546	-0.496117	90.727968
8.200000	-0.463157	119.087415	-40.701892	-90.498832	-40.701892	-90.498832	-0.500446	88.576630
8.250000	-0.467411	117.383464	-40.880111	-92.776441	-40.880111	-92.776441	-0.504852	86.416241
8.300000	-0.471652	115.669969	-41.073058	-95.091280	-41.073058	-95.091280	-0.509355	84.246862
8.350000	-0.475878	113.946593	-41.282375	-97.452435	-41.282375	-97.452435	-0.513983	82.068210
8.400000	-0.480091	112.214291	-41.508288	-99.863424	-41.508288	-99.863424	-0.518748	79.881163
8.450000	-0.484289	110.472018	-41.753782	-102.341891	-41.753782	-102.341891	-0.523699	77.684647
8.500000	-0.488475	108.720135	-42.020347	-104.899803	-42.020347	-104.899803	-0.528867	75.478832
8.550000	-0.492648	106.959448	-42.309000	-107.546372	-42.309000	-107.546372	-0.534274	73.264262
8.600000	-0.496809	105.188140	-42.625300	-110.326931	-42.625300	-110.326931	-0.540032	71.038672
8.650000	-0.500961	103.408060	-42.969352	-113.247154	-42.969352	-113.247154	-0.546141	68.803460
8.700000	-0.505105	101.618633	-43.345715	-116.354540	-43.345715	-116.354540	-0.552700	66.557287
8.750000	-0.509243	99.819407	-43.759511	-119.714640	-43.759511	-119.714640	-0.559834	64.298598
8.800000	-0.513380	98.011648	-44.212820	-123.360157	-44.212820	-123.360157	-0.567577	62.027870
8.850000	-0.517518	96.194084	-44.713256	-127.441595	-44.713256	-127.441595	-0.576182	59.741536
8.900000	-0.521663	94.367715	-45.263310	-132.050565	-45.263310	-132.050565	-0.585749	57.439127
8.950000	-0.525820	92.532878	-45.865312	-137.343242	-45.865312	-137.343242	-0.596459	55.118813
9.000000	-0.529999	90.688400	-46.516979	-143.723494	-46.516979	-143.723494	-0.608823	52.774220
9.050000	-0.534206	88.835950	-47.203061	-151.362283	-47.203061	-151.362283	-0.622945	50.405331
9.100000	-0.538455	86.975019	-47.880725	-160.814270	-47.880725	-160.814270	-0.639462	48.005056
9.150000	-0.542761	85.105651	-48.452868	-172.625822	-48.452868	-172.625822	-0.659119	45.565851
9.200000	-0.547143	83.228176	-48.746866	172.956958	-48.746866	172.956958	-0.682870	43.078852
9.250000	-0.551629	81.342749	-48.529307	156.462685	-48.529307	156.462685	-0.712209	40.530730
9.300000	-0.556251	79.449809	-47.667495	139.527692	-47.667495	139.527692	-0.749109	37.905778
9.350000	-0.561055	77.549687	-46.220844	123.907230	-46.220844	123.907230	-0.796672	35.181108
9.400000	-0.566104	75.642801	-44.377977	110.491899	-44.377977	110.491899	-0.859817	32.324455
9.450000	-0.571500	73.729629	-42.295192	99.207317	-42.295192	99.207317	-0.947578	29.283823
9.500000	-0.577362	71.811383	-40.087996	89.346738	-40.087996	89.346738	-1.073736	25.998737
9.550000	-0.583873	69.889725	-37.775607	80.152919	-37.775607	80.152919	-1.265432	22.375421
9.600000	-0.591272	67.968008	-35.333905	70.722783	-35.333905	70.722783	-1.579190	18.293536
9.650000	-0.599683	66.053259	-32.745703	59.857584	-32.745703	59.857584	-2.136419	13.711004
9.700000	-0.608360	64.159477	-30.045709	45.738309	-30.045709	45.738309	-3.218023	9.255108
9.750000	-0.612931	62.302960	-27.520404	25.877257	-27.520404	25.877257	-5.302518	9.581417
9.800000	-0.604421	60.447997	-25.980465	-0.386024	-25.980465	-0.386024	-6.953622	28.787425
9.850000	-0.588254	58.491779	-26.129115	-26.802550	-26.129115	-26.802550	-4.602004	44.097098
9.900000	-0.580835	56.461712	-27.361399	-46.429712	-27.361399	-46.429712	-2.565376	41.454835
9.950000	-0.581590	54.431583	-28.801946	-59.294923	-28.801946	-59.294923	-1.605785	35.728517
10.000000	-0.585546	52.462840	-30.247976	-68.682472	-30.247976	-68.682472	-1.153669	30.637512
