! freq	dB(S11)	phase(S11)	dB(S12)	phase(S12)	
!     	dB(S21)	phase(S21)	dB(S22)	phase(S22)	
!S-par simulation data
#  GHz  S  DB  R 50
0.000000	-0.000000	0.000000	-320.861420	0.000000	-320.861420	0.000000	-0.000000	0.000000
0.050000	-0.000429	-0.764281	-110.414354	88.884117	-110.414354	88.884117	-0.000821	-1.321154
0.100000	-0.001546	-1.527154	-104.436646	88.000840	-104.436646	88.000840	-0.002814	-2.636540
0.150000	-0.003012	-2.287799	-100.983832	87.082194	-100.983832	87.082194	-0.005188	-3.945097
0.200000	-0.004527	-3.046055	-98.586923	86.174793	-98.586923	86.174793	-0.007453	-5.248702
0.250000	-0.005942	-3.802590	-96.773775	85.292238	-96.773775	85.292238	-0.009506	-6.549866
0.300000	-0.007205	-4.557784	-95.344012	84.447614	-95.344012	84.447614	-0.011355	-7.849657
0.350000	-0.008315	-5.312055	-94.189225	83.653568	-94.189225	83.653568	-0.013054	-9.148703
0.400000	-0.009297	-6.065692	-93.246645	82.925448	-93.246645	82.925448	-0.014653	-10.447218
0.450000	-0.010175	-6.818849	-92.484133	82.290264	-92.484133	82.290264	-0.016189	-11.745148
0.500000	-0.010988	-7.571666	-91.866304	81.762660	-91.866304	81.762660	-0.017695	-13.042426
0.550000	-0.011758	-8.324179	-91.375429	81.369473	-91.375429	81.369473	-0.019185	-14.338901
0.600000	-0.012504	-9.076393	-90.999519	81.144258	-90.999519	81.144258	-0.020671	-15.634408
0.650000	-0.013237	-9.828292	-90.730588	81.129443	-90.730588	81.129443	-0.022158	-16.928785
0.700000	-0.013970	-10.579852	-90.563502	81.379270	-90.563502	81.379270	-0.023653	-18.221879
0.750000	-0.014710	-11.331014	-90.501003	81.990244	-90.501003	81.990244	-0.025158	-19.513447
0.800000	-0.015464	-12.081739	-90.539999	83.070427	-90.539999	83.070427	-0.026675	-20.803344
0.850000	-0.016237	-12.831993	-90.674440	84.754699	-90.674440	84.754699	-0.028203	-22.091474
0.900000	-0.017030	-13.581772	-90.891990	87.163933	-90.891990	87.163933	-0.029744	-23.377858
0.950000	-0.017846	-14.331008	-91.185027	90.560249	-91.185027	90.560249	-0.031295	-24.662286
1.000000	-0.018687	-15.079658	-91.526267	95.223922	-91.526267	95.223922	-0.032858	-25.944659
1.050000	-0.019554	-15.827682	-91.863535	101.454907	-91.863535	101.454907	-0.034431	-27.224885
1.100000	-0.020445	-16.575040	-92.108308	109.470707	-92.108308	109.470707	-0.036012	-28.502881
1.150000	-0.021360	-17.321694	-92.135959	119.202937	-92.135959	119.202937	-0.037601	-29.778568
1.200000	-0.022299	-18.067605	-91.819986	130.062832	-91.819986	130.062832	-0.039195	-31.051875
1.250000	-0.023259	-18.812740	-91.101365	140.953250	-91.101365	140.953250	-0.040795	-32.322733
1.300000	-0.024240	-19.557030	-90.015227	150.663046	-90.015227	150.663046	-0.042398	-33.590969
1.350000	-0.025237	-20.300478	-88.710002	158.622567	-88.710002	158.622567	-0.044003	-34.856632
1.400000	-0.026249	-21.043057	-87.308874	164.793758	-87.308874	164.793758	-0.045608	-36.119668
1.450000	-0.027274	-21.784744	-85.895915	169.410878	-85.895915	169.410878	-0.047214	-37.380027
1.500000	-0.028307	-22.525517	-84.517994	172.777035	-84.517994	172.777035	-0.048818	-38.637661
1.550000	-0.029347	-23.265359	-83.197130	175.169305	-83.197130	175.169305	-0.050421	-39.892528
1.600000	-0.030391	-24.004254	-81.941210	176.811214	-81.941210	176.811214	-0.052020	-41.144584
1.650000	-0.031437	-24.742189	-80.750830	177.873919	-80.750830	177.873919	-0.053617	-42.393794
1.700000	-0.032481	-25.479155	-79.623137	178.485941	-79.623137	178.485941	-0.055210	-43.640119
1.750000	-0.033524	-26.215142	-78.553855	178.743450	-78.553855	178.743450	-0.056798	-44.883526
1.800000	-0.034561	-26.950145	-77.538307	178.718744	-77.538307	178.718744	-0.058383	-46.123984
1.850000	-0.035594	-27.684158	-76.571909	178.466656	-76.571909	178.466656	-0.059963	-47.361463
1.900000	-0.036619	-28.417177	-75.650389	178.029207	-75.650389	178.029207	-0.061539	-48.595936
1.950000	-0.037637	-29.149199	-74.769863	177.438966	-74.769863	177.438966	-0.063110	-49.827377
2.000000	-0.038647	-29.880220	-73.926851	176.721464	-73.926851	176.721464	-0.064678	-51.055763
2.050000	-0.039649	-30.610237	-73.118252	175.896932	-73.118252	175.896932	-0.066242	-52.281071
2.100000	-0.040643	-31.339246	-72.341310	174.981571	-72.341310	174.981571	-0.067802	-53.503282
2.150000	-0.041629	-32.067243	-71.593580	173.988492	-71.593580	173.988492	-0.069360	-54.722377
2.200000	-0.042609	-32.794223	-70.872887	172.928400	-70.872887	172.928400	-0.070915	-55.938340
2.250000	-0.043582	-33.520180	-70.177296	171.810123	-70.177296	171.810123	-0.072468	-57.151156
2.300000	-0.044550	-34.245107	-69.505077	170.640999	-69.505077	170.640999	-0.074021	-58.360812
2.350000	-0.045514	-34.968997	-68.854683	169.427184	-68.854683	169.427184	-0.075573	-59.567296
2.400000	-0.046475	-35.691842	-68.224725	168.173880	-68.224725	168.173880	-0.077125	-60.770599
2.450000	-0.047433	-36.413631	-67.613951	166.885518	-67.613951	166.885518	-0.078678	-61.970712
2.500000	-0.048391	-37.134357	-67.021230	165.565900	-67.021230	165.565900	-0.080233	-63.167629
2.550000	-0.049348	-37.853960	-66.444623	164.217229	-66.444623	164.217229	-0.081791	-64.361206
2.600000	-0.050307	-38.572475	-65.884214	162.843671	-65.884214	162.843671	-0.083353	-65.551578
2.650000	-0.051269	-39.289891	-65.339141	161.447687	-65.339141	161.447687	-0.084919	-66.738745
2.700000	-0.052233	-40.006196	-64.808618	160.031450	-64.808618	160.031450	-0.086490	-67.922706
2.750000	-0.053202	-40.721377	-64.291922	158.596891	-64.291922	158.596891	-0.088068	-69.103463
2.800000	-0.054176	-41.435422	-63.788390	157.145730	-63.788390	157.145730	-0.089653	-70.281021
2.850000	-0.055156	-42.148318	-63.297410	155.679513	-63.297410	155.679513	-0.091245	-71.455383
2.900000	-0.056143	-42.860053	-62.818416	154.199631	-62.818416	154.199631	-0.092847	-72.626558
2.950000	-0.057138	-43.570615	-62.350882	152.707345	-62.350882	152.707345	-0.094459	-73.794554
3.000000	-0.058140	-44.279990	-61.894320	151.203800	-61.894320	151.203800	-0.096081	-74.959379
3.050000	-0.059152	-44.988167	-61.448275	149.690040	-61.448275	149.690040	-0.097715	-76.121048
3.100000	-0.060173	-45.695133	-61.012321	148.167020	-61.012321	148.167020	-0.099361	-77.279571
3.150000	-0.061204	-46.400878	-60.586061	146.635619	-60.586061	146.635619	-0.101021	-78.434965
3.200000	-0.062245	-47.105389	-60.169121	145.096643	-60.169121	145.096643	-0.102694	-79.587246
3.250000	-0.063297	-47.808657	-59.761148	143.550835	-59.761148	143.550835	-0.104383	-80.736432
3.300000	-0.064360	-48.510669	-59.361811	141.998883	-59.361811	141.998883	-0.106088	-81.882542
3.350000	-0.065435	-49.211417	-58.970798	140.441422	-58.970798	140.441422	-0.107810	-83.025598
3.400000	-0.066522	-49.910890	-58.587811	138.879041	-58.587811	138.879041	-0.109549	-84.165622
3.450000	-0.067621	-50.609079	-58.212571	137.312283	-58.212571	137.312283	-0.111306	-85.302640
3.500000	-0.068733	-51.305974	-57.844811	135.741654	-57.844811	135.741654	-0.113082	-86.436676
3.550000	-0.069858	-52.001568	-57.484278	134.167623	-57.484278	134.167623	-0.114879	-87.567757
3.600000	-0.070995	-52.695852	-57.130730	132.590622	-57.130730	132.590622	-0.116696	-88.695914
3.650000	-0.072147	-53.388819	-56.783938	131.011053	-56.783938	131.011053	-0.118534	-89.821176
3.700000	-0.073311	-54.080462	-56.443683	129.429287	-56.443683	129.429287	-0.120394	-90.943574
3.750000	-0.074490	-54.770773	-56.109756	127.845668	-56.109756	127.845668	-0.122278	-92.063143
3.800000	-0.075683	-55.459688	-55.781686	126.260458	-55.781686	126.260458	-0.124185	-93.179796
3.850000	-0.076891	-56.147259	-55.459574	124.674025	-55.459574	124.674025	-0.126117	-94.293694
3.900000	-0.078114	-56.833480	-55.143235	123.086634	-55.143235	123.086634	-0.128074	-95.404874
3.950000	-0.079351	-57.518347	-54.832491	121.498527	-54.832491	121.498527	-0.130056	-96.513374
4.000000	-0.080603	-58.201855	-54.527174	119.909925	-54.527174	119.909925	-0.132065	-97.619236
4.050000	-0.081871	-58.884000	-54.227119	118.321029	-54.227119	118.321029	-0.134100	-98.722502
4.100000	-0.083154	-59.564778	-53.932171	116.732020	-53.932171	116.732020	-0.136162	-99.823213
4.150000	-0.084453	-60.244186	-53.642180	115.143063	-53.642180	115.143063	-0.138252	-100.921415
4.200000	-0.085768	-60.922220	-53.357003	113.554307	-53.357003	113.554307	-0.140371	-102.017153
4.250000	-0.087099	-61.598879	-53.076501	111.965881	-53.076501	111.965881	-0.142519	-103.110474
4.300000	-0.088447	-62.274159	-52.800543	110.377904	-52.800543	110.377904	-0.144696	-104.201427
4.350000	-0.089812	-62.948059	-52.529001	108.790477	-52.529001	108.790477	-0.146903	-105.290060
4.400000	-0.091194	-63.620577	-52.261754	107.203690	-52.261754	107.203690	-0.149141	-106.376425
4.450000	-0.092594	-64.291713	-51.998684	105.617621	-51.998684	105.617621	-0.151409	-107.460573
4.500000	-0.094011	-64.961465	-51.739680	104.032335	-51.739680	104.032335	-0.153710	-108.542558
4.550000	-0.095446	-65.629833	-51.484634	102.447888	-51.484634	102.447888	-0.156042	-109.622433
4.600000	-0.096900	-66.296816	-51.233443	100.864325	-51.233443	100.864325	-0.158406	-110.700254
4.650000	-0.098372	-66.962415	-50.986008	99.281682	-50.986008	99.281682	-0.160804	-111.776076
4.700000	-0.099863	-67.626631	-50.742234	97.699987	-50.742234	97.699987	-0.163234	-112.849959
4.750000	-0.101374	-68.289464	-50.502031	96.119263	-50.502031	96.119263	-0.165699	-113.921960
4.800000	-0.102905	-68.950915	-50.265311	94.539522	-50.265311	94.539522	-0.168197	-114.992139
4.850000	-0.104455	-69.610985	-50.031992	92.960773	-50.031992	92.960773	-0.170730	-116.060557
4.900000	-0.106026	-70.269677	-49.801994	91.383019	-49.801994	91.383019	-0.173297	-117.127276
4.950000	-0.107618	-70.926991	-49.575240	89.806259	-49.575240	89.806259	-0.175900	-118.192359
5.000000	-0.109230	-71.582931	-49.351658	88.230488	-49.351658	88.230488	-0.178539	-119.255869
5.050000	-0.110866	-72.237440	-49.131071	86.655739	-49.131071	86.655739	-0.181214	-120.317809
5.100000	-0.112523	-72.890578	-48.913527	85.081958	-48.913527	85.081958	-0.183926	-121.378314
5.150000	-0.114203	-73.542351	-48.698962	83.509133	-48.698962	83.509133	-0.186675	-122.437449
5.200000	-0.115906	-74.192761	-48.487316	81.937249	-48.487316	81.937249	-0.189461	-123.495285
5.250000	-0.117632	-74.841811	-48.278531	80.366291	-48.278531	80.366291	-0.192283	-124.551888
5.300000	-0.119382	-75.489506	-48.072551	78.796246	-48.072551	78.796246	-0.195144	-125.607330
5.350000	-0.121155	-76.135849	-47.869323	77.227099	-47.869323	77.227099	-0.198042	-126.661680
5.400000	-0.122953	-76.780844	-47.668797	75.658837	-47.668797	75.658837	-0.200978	-127.715011
5.450000	-0.124777	-77.424497	-47.470924	74.091448	-47.470924	74.091448	-0.203952	-128.767395
5.500000	-0.126625	-78.066811	-47.275658	72.524923	-47.275658	72.524923	-0.206966	-129.818906
5.550000	-0.128500	-78.707791	-47.082955	70.959254	-47.082955	70.959254	-0.210018	-130.869618
5.600000	-0.130401	-79.347443	-46.892774	69.394437	-46.892774	69.394437	-0.213109	-131.919606
5.650000	-0.132328	-79.985772	-46.705073	67.830469	-46.705073	67.830469	-0.216239	-132.968947
5.700000	-0.134283	-80.622783	-46.519815	66.267353	-46.519815	66.267353	-0.219410	-134.017716
5.750000	-0.136265	-81.258482	-46.336963	64.705094	-46.336963	64.705094	-0.222620	-135.065993
5.800000	-0.138276	-81.892874	-46.156480	63.143701	-46.156480	63.143701	-0.225870	-136.113856
5.850000	-0.140315	-82.525967	-45.978334	61.583187	-45.978334	61.583187	-0.229160	-137.161384
5.900000	-0.142383	-83.157765	-45.802490	60.023570	-45.802490	60.023570	-0.232491	-138.208658
5.950000	-0.144481	-83.788276	-45.628918	58.464872	-45.628918	58.464872	-0.235863	-139.255758
6.000000	-0.146608	-84.417506	-45.457587	56.907119	-45.457587	56.907119	-0.239276	-140.302767
6.050000	-0.148766	-85.045461	-45.288466	55.350343	-45.288466	55.350343	-0.242730	-141.349768
6.100000	-0.150955	-85.672149	-45.121527	53.794580	-45.121527	53.794580	-0.246225	-142.396843
6.150000	-0.153175	-86.297577	-44.956742	52.239870	-44.956742	52.239870	-0.249762	-143.444078
6.200000	-0.155427	-86.921751	-44.794082	50.686257	-44.794082	50.686257	-0.253341	-144.491556
6.250000	-0.157711	-87.544680	-44.633521	49.133792	-44.633521	49.133792	-0.256961	-145.539365
6.300000	-0.160029	-88.166317	-44.474995	47.582583	-44.474995	47.582583	-0.260626	-146.587613
6.350000	-0.162380	-88.786724	-44.318519	46.032638	-44.318519	46.032638	-0.264333	-147.636373
6.400000	-0.164764	-89.405909	-44.164065	44.484022	-44.164065	44.484022	-0.268082	-148.685734
6.450000	-0.167183	-90.023880	-44.011606	42.936798	-44.011606	42.936798	-0.271874	-149.735783
6.500000	-0.169635	-90.640645	-43.861116	41.391039	-43.861116	41.391039	-0.275709	-150.786612
6.550000	-0.172123	-91.256212	-43.712567	39.846816	-43.712567	39.846816	-0.279586	-151.838310
6.600000	-0.174645	-91.870590	-43.565933	38.304205	-43.565933	38.304205	-0.283507	-152.890969
6.650000	-0.177203	-92.483787	-43.421186	36.763285	-43.421186	36.763285	-0.287472	-153.944681
6.700000	-0.179797	-93.095812	-43.278299	35.224135	-43.278299	35.224135	-0.291479	-154.999537
6.750000	-0.182427	-93.706673	-43.137243	33.686838	-43.137243	33.686838	-0.295530	-156.055632
6.800000	-0.185094	-94.316380	-42.997989	32.151476	-42.997989	32.151476	-0.299625	-157.113059
6.850000	-0.187798	-94.924942	-42.860509	30.618134	-42.860509	30.618134	-0.303764	-158.171913
6.900000	-0.190538	-95.532367	-42.724772	29.086895	-42.724772	29.086895	-0.307947	-159.232290
6.950000	-0.193317	-96.138665	-42.590748	27.557843	-42.590748	27.557843	-0.312174	-160.294284
7.000000	-0.196133	-96.743846	-42.458406	26.031060	-42.458406	26.031060	-0.316446	-161.357993
7.050000	-0.198987	-97.347918	-42.327713	24.506628	-42.327713	24.506628	-0.320762	-162.423515
7.100000	-0.201880	-97.950893	-42.198638	22.984627	-42.198638	22.984627	-0.325122	-163.490945
7.150000	-0.204812	-98.552778	-42.071146	21.465133	-42.071146	21.465133	-0.329527	-164.560385
7.200000	-0.207782	-99.153584	-41.945203	19.948220	-41.945203	19.948220	-0.333977	-165.631931
7.250000	-0.210792	-99.753322	-41.820774	18.433958	-41.820774	18.433958	-0.338472	-166.705684
7.300000	-0.213841	-100.352001	-41.697823	16.922413	-41.697823	16.922413	-0.343012	-167.781744
7.350000	-0.216929	-100.949631	-41.576313	15.413645	-41.576313	15.413645	-0.347597	-168.860212
7.400000	-0.220057	-101.546223	-41.456206	13.907710	-41.456206	13.907710	-0.352227	-169.941189
7.450000	-0.223225	-102.141788	-41.337464	12.404657	-41.337464	12.404657	-0.356903	-171.024776
7.500000	-0.226433	-102.736335	-41.220047	10.904530	-41.220047	10.904530	-0.361624	-172.111076
7.550000	-0.229683	-103.329832	-41.103903	9.407493	-41.103903	9.407493	-0.366392	-173.200319
7.600000	-0.232973	-103.922334	-40.989002	7.913445	-40.989002	7.913445	-0.371207	-174.292490
7.650000	-0.236303	-104.513853	-40.875303	6.422406	-40.875303	6.422406	-0.376067	-175.387691
7.700000	-0.239673	-105.104398	-40.762763	4.934383	-40.762763	4.934383	-0.380973	-176.486029
7.750000	-0.243084	-105.693982	-40.651337	3.449376	-40.651337	3.449376	-0.385924	-177.587605
7.800000	-0.246534	-106.282615	-40.540984	1.967374	-40.540984	1.967374	-0.390922	-178.692526
7.850000	-0.250025	-106.870309	-40.431657	0.488357	-40.431657	0.488357	-0.395966	-179.800895
7.900000	-0.253557	-107.457075	-40.323312	-0.987708	-40.323312	-0.987708	-0.401056	179.087182
7.950000	-0.257128	-108.042925	-40.215903	-2.460865	-40.215903	-2.460865	-0.406192	177.971600
8.000000	-0.260739	-108.627870	-40.109384	-3.931171	-40.109384	-3.931171	-0.411374	176.852254
8.050000	-0.264390	-109.211923	-40.003710	-5.398693	-40.003710	-5.398693	-0.416603	175.729038
8.100000	-0.268080	-109.795095	-39.898832	-6.863513	-39.898832	-6.863513	-0.421878	174.601847
8.150000	-0.271810	-110.377398	-39.794706	-8.325727	-39.794706	-8.325727	-0.427199	173.470575
8.200000	-0.275579	-110.958844	-39.691283	-9.785442	-39.691283	-9.785442	-0.432566	172.335117
8.250000	-0.279387	-111.539446	-39.588517	-11.242783	-39.588517	-11.242783	-0.437980	171.195368
8.300000	-0.283233	-112.119217	-39.486360	-12.697887	-39.486360	-12.697887	-0.443441	170.051222
8.350000	-0.287117	-112.698167	-39.384767	-14.150906	-39.384767	-14.150906	-0.448947	168.902574
8.400000	-0.291040	-113.276311	-39.283689	-15.602010	-39.283689	-15.602010	-0.454500	167.749320
8.450000	-0.294999	-113.853661	-39.183080	-17.051383	-39.183080	-17.051383	-0.460099	166.591356
8.500000	-0.298996	-114.430229	-39.082895	-18.499225	-39.082895	-18.499225	-0.465745	165.428576
8.550000	-0.303028	-115.006029	-38.983088	-19.945753	-38.983088	-19.945753	-0.471436	164.260879
8.600000	-0.307097	-115.581075	-38.883612	-21.391203	-38.883612	-21.391203	-0.477174	163.088162
8.650000	-0.311201	-116.155378	-38.784425	-22.835825	-38.784425	-22.835825	-0.482958	161.910321
8.700000	-0.315340	-116.728953	-38.685481	-24.279890	-38.685481	-24.279890	-0.488788	160.727257
8.750000	-0.319513	-117.301812	-38.586737	-25.723685	-38.586737	-25.723685	-0.494663	159.538868
8.800000	-0.323720	-117.873941	-38.488109	-27.167535	-38.488109	-27.167535	-0.500587	158.344814
8.850000	-0.327960	-118.445383	-38.389595	-28.611779	-38.389595	-28.611779	-0.506556	157.145229
8.900000	-0.332232	-119.016153	-38.291154	-30.056766	-38.291154	-30.056766	-0.512570	155.940015
8.950000	-0.336535	-119.586265	-38.192750	-31.502862	-38.192750	-31.502862	-0.518629	154.729076
9.000000	-0.340867	-120.155733	-38.094344	-32.950457	-38.094344	-32.950457	-0.524734	153.512318
9.050000	-0.345229	-120.724571	-37.995902	-34.399960	-37.995902	-34.399960	-0.530883	152.289648
9.100000	-0.349618	-121.292793	-37.897389	-35.851800	-37.897389	-35.851800	-0.537077	151.060975
9.150000	-0.354035	-121.860415	-37.798775	-37.306430	-37.798775	-37.306430	-0.543316	149.826209
9.200000	-0.358478	-122.427451	-37.700030	-38.764322	-37.700030	-38.764322	-0.549598	148.585263
9.250000	-0.362945	-122.993917	-37.601126	-40.225974	-37.601126	-40.225974	-0.555924	147.338050
9.300000	-0.367436	-123.559826	-37.502040	-41.691905	-37.502040	-41.691905	-0.562294	146.084488
9.350000	-0.371950	-124.125195	-37.402749	-43.162656	-37.402749	-43.162656	-0.568707	144.824496
9.400000	-0.376484	-124.690038	-37.303235	-44.638793	-37.303235	-44.638793	-0.575162	143.557994
9.450000	-0.381038	-125.254372	-37.203483	-46.120907	-37.203483	-46.120907	-0.581660	142.284907
9.500000	-0.385610	-125.818212	-37.103480	-47.609610	-37.103480	-47.609610	-0.588200	141.005162
9.550000	-0.390199	-126.381573	-37.003220	-49.105540	-37.003220	-49.105540	-0.594781	139.718689
9.600000	-0.394803	-126.944472	-36.902697	-50.609361	-36.902697	-50.609361	-0.601403	138.425421
9.650000	-0.399421	-127.506925	-36.801913	-52.121759	-36.801913	-52.121759	-0.608066	137.125293
9.700000	-0.404050	-128.068949	-36.700873	-53.643447	-36.700873	-53.643447	-0.614768	135.818247
9.750000	-0.408690	-128.630559	-36.599589	-55.175159	-36.599589	-55.175159	-0.621510	134.504225
9.800000	-0.413338	-129.191772	-36.498077	-56.717656	-36.498077	-56.717656	-0.628290	133.183175
9.850000	-0.417992	-129.752606	-36.396361	-58.271722	-36.396361	-58.271722	-0.635109	131.855049
9.900000	-0.422650	-130.313076	-36.294469	-59.838163	-36.294469	-59.838163	-0.641964	130.519801
9.950000	-0.427311	-130.873201	-36.192439	-61.417807	-36.192439	-61.417807	-0.648857	129.177393
10.000000	-0.431972	-131.432997	-36.090316	-63.011505	-36.090316	-63.011505	-0.655785	127.827790
