! freq	dB(S11)	phase(S11)	dB(S12)	phase(S12)	
!     	dB(S21)	phase(S21)	dB(S22)	phase(S22)	
!S-par simulation data
#  GHz  S  DB  R 50
0.000000	-82.894972	0.000000	-0.000622	0.000000	-0.000622	0.000000	-82.894972	0.000000
0.050000	-51.443599	-87.823259	-0.004443	-2.466705	-0.004443	-2.466705	-51.487263	-80.699192
0.100000	-45.794361	-96.093353	-0.009774	-4.899055	-0.009774	-4.899055	-45.648868	-85.000035
0.150000	-42.337244	-102.759931	-0.013742	-7.319691	-0.013742	-7.319691	-42.143945	-86.413182
0.200000	-39.835118	-108.793986	-0.017089	-9.738401	-0.017089	-9.738401	-39.631415	-87.092596
0.250000	-37.863180	-114.492335	-0.020267	-12.156606	-0.020267	-12.156606	-37.663742	-87.454028
0.300000	-36.228035	-120.001795	-0.023462	-14.574353	-0.023462	-14.574353	-36.039784	-87.675053
0.350000	-34.825639	-125.383933	-0.026706	-16.991641	-0.026706	-16.991641	-34.652157	-87.826765
0.400000	-33.592671	-130.666011	-0.029996	-19.408562	-0.029996	-19.408562	-33.436020	-87.943138
0.450000	-32.485866	-135.857453	-0.033323	-21.825294	-0.033323	-21.825294	-32.347569	-88.044660
0.500000	-31.479610	-140.974521	-0.036680	-24.242084	-0.036680	-24.242084	-31.360020	-88.145938
0.550000	-30.554309	-146.023494	-0.040066	-26.659137	-0.040066	-26.659137	-30.453302	-88.255083
0.600000	-29.694855	-151.007081	-0.043492	-29.076655	-0.043492	-29.076655	-29.612068	-88.378415
0.650000	-28.889804	-155.927312	-0.046974	-31.494829	-0.046974	-31.494829	-28.824689	-88.521211
0.700000	-28.131202	-160.787778	-0.050528	-33.913793	-0.050528	-33.913793	-28.083025	-88.686904
0.750000	-27.412341	-165.590219	-0.054174	-36.333671	-0.054174	-36.333671	-27.380307	-88.878756
0.800000	-26.728003	-170.336372	-0.057936	-38.754556	-0.057936	-38.754556	-26.711300	-89.099465
0.850000	-26.073519	-175.026517	-0.061837	-41.176549	-0.061837	-41.176549	-26.071372	-89.352200
0.900000	-25.446283	-179.664100	-0.065894	-43.599667	-0.065894	-43.599667	-25.457883	-89.637866
0.950000	-24.843047	175.750835	-0.070132	-46.023978	-0.070132	-46.023978	-24.867637	-89.959054
1.000000	-24.261438	171.217320	-0.074572	-48.449521	-0.074572	-48.449521	-24.298283	-90.317559
1.050000	-23.699476	166.734453	-0.079235	-50.876323	-0.079235	-50.876323	-23.747853	-90.714941
1.100000	-23.155495	162.301376	-0.084143	-53.304408	-0.084143	-53.304408	-23.214691	-91.152525
1.150000	-22.628089	157.917262	-0.089315	-55.733787	-0.089315	-55.733787	-22.697392	-91.631395
1.200000	-22.116061	153.581300	-0.094774	-58.164469	-0.094774	-58.164469	-22.194764	-92.152408
1.250000	-21.618391	149.292688	-0.100538	-60.596451	-0.100538	-60.596451	-21.705787	-92.716202
1.300000	-21.133983	145.051372	-0.106634	-63.029749	-0.106634	-63.029749	-21.229372	-93.323925
1.350000	-20.662330	140.855783	-0.113077	-65.464326	-0.113077	-65.464326	-20.765011	-93.975127
1.400000	-20.202780	136.705121	-0.119886	-67.900160	-0.119886	-67.900160	-20.312063	-94.669890
1.450000	-19.754768	132.598582	-0.127082	-70.337221	-0.127082	-70.337221	-19.869977	-95.408152
1.500000	-19.317803	128.535364	-0.134683	-72.775472	-0.134683	-72.775472	-19.438278	-96.189720
1.550000	-18.891453	124.514662	-0.142710	-75.214866	-0.142710	-75.214866	-19.016557	-97.014283
1.600000	-18.475263	120.536007	-0.151186	-77.655357	-0.151186	-77.655357	-18.604378	-97.881772
1.650000	-18.068963	116.598364	-0.160126	-80.096874	-0.160126	-80.096874	-18.201498	-98.791443
1.700000	-17.672126	112.701573	-0.169560	-82.539355	-0.169560	-82.539355	-17.807516	-99.743368
1.750000	-17.284857	108.843134	-0.179483	-84.982677	-0.179483	-84.982677	-17.422579	-100.735106
1.800000	-16.906704	105.023256	-0.189924	-87.426770	-0.189924	-87.426770	-17.046259	-101.766952
1.850000	-16.537452	101.241179	-0.200903	-89.871527	-0.200903	-89.871527	-16.678377	-102.838130
1.900000	-16.176844	97.496554	-0.212440	-92.316838	-0.212440	-92.316838	-16.318703	-103.948226
1.950000	-15.824724	93.788629	-0.224553	-94.762570	-0.224553	-94.762570	-15.967115	-105.096344
2.000000	-15.481002	90.116294	-0.237249	-97.208579	-0.237249	-97.208579	-15.623560	-106.281163
2.050000	-15.145531	86.478862	-0.250544	-99.654714	-0.250544	-99.654714	-15.287924	-107.501748
2.100000	-14.818172	82.875665	-0.264448	-102.100814	-0.264448	-102.100814	-14.960102	-108.757140
2.150000	-14.498798	79.306058	-0.278974	-104.546709	-0.278974	-104.546709	-14.639998	-110.046358
2.200000	-14.187290	75.769418	-0.294130	-106.992217	-0.294130	-106.992217	-14.327520	-111.368405
2.250000	-13.883532	72.265144	-0.309924	-109.437146	-0.309924	-109.437146	-14.022586	-112.722272
2.300000	-13.587418	68.792657	-0.326361	-111.881295	-0.326361	-111.881295	-13.725114	-114.106939
2.350000	-13.298844	65.351401	-0.343446	-114.324456	-0.343446	-114.324456	-13.435028	-115.521381
2.400000	-13.017711	61.940841	-0.361180	-116.766411	-0.361180	-116.766411	-13.152252	-116.964571
2.450000	-12.743923	58.560464	-0.379562	-119.206937	-0.379562	-119.206937	-12.876713	-118.435482
2.500000	-12.477387	55.209777	-0.398589	-121.645805	-0.398589	-121.645805	-12.608340	-119.933093
2.550000	-12.218001	51.888932	-0.418268	-124.082734	-0.418268	-124.082734	-12.347046	-121.456921
2.600000	-11.965700	48.596830	-0.438577	-126.517522	-0.438577	-126.517522	-12.092789	-123.005380
2.650000	-11.720395	45.333034	-0.459505	-128.949930	-0.459505	-128.949930	-11.845494	-124.577476
2.700000	-11.481998	42.097127	-0.481039	-131.379716	-0.481039	-131.379716	-11.605088	-126.172230
2.750000	-11.250421	38.888702	-0.503161	-133.806642	-0.503161	-133.806642	-11.371496	-127.788680
2.800000	-11.025577	35.707369	-0.525851	-136.230468	-0.525851	-136.230468	-11.144641	-129.425881
2.850000	-10.807379	32.552748	-0.549089	-138.650960	-0.549089	-138.650960	-10.924445	-131.082911
2.900000	-10.595742	29.424469	-0.572847	-141.067889	-0.572847	-141.067889	-10.710830	-132.758870
2.950000	-10.390580	26.322173	-0.597100	-143.481032	-0.597100	-143.481032	-10.503716	-134.452883
3.000000	-10.191805	23.245508	-0.621814	-145.890171	-0.621814	-145.890171	-10.303022	-136.164102
3.050000	-9.999332	20.194125	-0.646959	-148.295101	-0.646959	-148.295101	-10.108664	-137.891703
3.100000	-9.813074	17.167682	-0.672497	-150.695625	-0.672497	-150.695625	-9.920560	-139.634896
3.150000	-9.632974	14.166103	-0.698394	-153.091507	-0.698394	-153.091507	-9.738649	-141.393071
3.200000	-9.458949	11.189037	-0.724606	-155.482569	-0.724606	-155.482569	-9.562851	-143.165472
3.250000	-9.290888	8.235880	-0.751088	-157.868704	-0.751088	-157.868704	-9.393056	-144.951243
3.300000	-9.128706	5.306289	-0.777796	-160.249771	-0.777796	-160.249771	-9.229174	-146.749718
3.350000	-8.972404	2.400585	-0.804684	-162.625489	-0.804684	-162.625489	-9.071203	-148.560598
3.400000	-8.821585	-0.483919	-0.831700	-164.996297	-0.831700	-164.996297	-8.918747	-150.382123
3.450000	-8.676643	-3.344050	-0.858797	-167.361268	-0.858797	-167.361268	-8.772192	-152.215457
3.500000	-8.537070	-6.183195	-0.885926	-169.721061	-0.885926	-169.721061	-8.631025	-154.058621
3.550000	-8.403032	-9.000017	-0.913029	-172.075199	-0.913029	-172.075199	-8.495411	-155.911908
3.600000	-8.274383	-11.795310	-0.940055	-174.423753	-0.940055	-174.423753	-8.365194	-157.774670
3.650000	-8.150910	-14.570275	-0.966960	-176.766924	-0.966960	-176.766924	-8.240158	-159.646123
3.700000	-8.032871	-17.323294	-0.993663	-179.104177	-0.993663	-179.104177	-8.120552	-161.526722
3.750000	-7.919635	-20.057923	-1.020159	178.563603	-1.020159	178.563603	-8.005746	-163.414809
3.800000	-7.811899	-22.770332	-1.046316	176.237545	-1.046316	176.237545	-7.896418	-165.311760
3.850000	-7.708808	-25.465131	-1.072163	173.916420	-1.072163	173.916420	-7.791719	-167.215616
3.900000	-7.610864	-28.139784	-1.097578	171.600978	-1.097578	171.600978	-7.692136	-169.127272
3.950000	-7.517632	-30.796554	-1.122555	169.290601	-1.122555	169.290601	-7.597231	-171.045789
4.000000	-7.429192	-33.435197	-1.147019	166.985367	-1.147019	166.985367	-7.507077	-172.971229
4.050000	-7.345552	-36.055845	-1.170908	164.685231	-1.170908	164.685231	-7.421671	-174.903539
4.100000	-7.266350	-38.660322	-1.194220	162.389654	-1.194220	162.389654	-7.340653	-176.842052
4.150000	-7.192052	-41.246862	-1.216810	160.099094	-1.216810	160.099094	-7.264468	-178.787508
4.200000	-7.121921	-43.818817	-1.238761	157.812566	-1.238761	157.812566	-7.192390	179.261308
4.250000	-7.056664	-46.373676	-1.259870	155.530690	-1.259870	155.530690	-7.125098	177.303274
4.300000	-6.995542	-48.914647	-1.280236	153.252516	-1.280236	153.252516	-7.061867	175.339534
4.350000	-6.938970	-51.440575	-1.299715	150.978250	-1.299715	150.978250	-7.003088	173.369426
4.400000	-6.886672	-53.952854	-1.318318	148.707421	-1.318318	148.707421	-6.948487	171.393334
4.450000	-6.838609	-56.452067	-1.336005	146.439755	-1.336005	146.439755	-6.898018	169.411271
4.500000	-6.794978	-58.938064	-1.352680	144.175142	-1.352680	144.175142	-6.851862	167.422889
4.550000	-6.755280	-61.412883	-1.368427	141.912962	-1.368427	141.912962	-6.809530	165.428878
4.600000	-6.720189	-63.875125	-1.383028	139.653324	-1.383028	139.653324	-6.771663	163.428160
4.650000	-6.688902	-66.327589	-1.396659	137.395484	-1.396659	137.395484	-6.737478	161.421882
4.700000	-6.662105	-68.769115	-1.409101	135.139422	-1.409101	135.139422	-6.707626	159.408938
4.750000	-6.639233	-71.201708	-1.420479	132.884589	-1.420479	132.884589	-6.681556	157.390122
4.800000	-6.620593	-73.625347	-1.430680	130.630720	-1.430680	130.630720	-6.659554	155.364904
4.850000	-6.606100	-76.040899	-1.439706	128.377439	-1.439706	128.377439	-6.641530	153.333359
4.900000	-6.595597	-78.449376	-1.447583	126.124361	-1.447583	126.124361	-6.627324	151.295685
4.950000	-6.589486	-80.850851	-1.454180	123.871108	-1.454180	123.871108	-6.617310	149.251223
5.000000	-6.587140	-83.247018	-1.459672	121.617363	-1.459672	121.617363	-6.610882	147.200924
5.050000	-6.589250	-85.637728	-1.463848	119.362631	-1.463848	119.362631	-6.608687	145.143708
5.100000	-6.595543	-88.024190	-1.466787	117.106560	-1.466787	117.106560	-6.610455	143.080014
5.150000	-6.606046	-90.407215	-1.468485	114.848752	-1.468485	114.848752	-6.616202	141.009831
5.200000	-6.620791	-92.787631	-1.468940	112.588809	-1.468940	112.588809	-6.625948	138.933169
5.250000	-6.639819	-95.166294	-1.468152	110.326330	-1.468152	110.326330	-6.639719	136.850052
5.300000	-6.663173	-97.544078	-1.466126	108.060912	-1.466126	108.060912	-6.657546	134.760527
5.350000	-6.690904	-99.921885	-1.462869	105.792153	-1.462869	105.792153	-6.679465	132.664664
5.400000	-6.723072	-102.300644	-1.458389	103.519649	-1.458389	103.519649	-6.705518	130.562561
5.450000	-6.759738	-104.681313	-1.452700	101.242999	-1.452700	101.242999	-6.735751	128.454347
5.500000	-6.800974	-107.064881	-1.445818	98.961803	-1.445818	98.961803	-6.770219	126.340188
5.550000	-6.846857	-109.452371	-1.437761	96.675663	-1.437761	96.675663	-6.808977	124.220286
5.600000	-6.897473	-111.844843	-1.428550	94.384184	-1.428550	94.384184	-6.852092	122.094888
5.650000	-6.952960	-114.243477	-1.418199	92.086911	-1.418199	92.086911	-6.899677	119.964237
5.700000	-7.013421	-116.649460	-1.406735	89.783447	-1.406735	89.783447	-6.951810	117.828695
5.750000	-7.078912	-119.063922	-1.394202	87.473475	-1.394202	87.473475	-7.008524	115.688732
5.800000	-7.149548	-121.488115	-1.380633	85.156625	-1.380633	85.156625	-7.069908	113.544825
5.850000	-7.225450	-123.923349	-1.366067	82.832533	-1.366067	82.832533	-7.136054	111.397524
5.900000	-7.306748	-126.371000	-1.350541	80.500847	-1.350541	80.500847	-7.207059	109.247459
5.950000	-7.393580	-128.832516	-1.334098	78.161222	-1.334098	78.161222	-7.283026	107.095346
6.000000	-7.486091	-131.309426	-1.316785	75.813325	-1.316785	75.813325	-7.364065	104.941998
6.050000	-7.584435	-133.803347	-1.298648	73.456835	-1.298648	73.456835	-7.450290	102.788330
6.100000	-7.688774	-136.315996	-1.279740	71.091445	-1.279740	71.091445	-7.541818	100.635377
6.150000	-7.799278	-138.849199	-1.260114	68.716860	-1.260114	68.716860	-7.638774	98.484295
6.200000	-7.916123	-141.404904	-1.239825	66.332800	-1.239825	66.332800	-7.741284	96.336381
6.250000	-8.039497	-143.985198	-1.218934	63.939004	-1.218934	63.939004	-7.849478	94.193082
6.300000	-8.169695	-146.592958	-1.197489	61.535002	-1.197489	61.535002	-7.963584	92.056188
6.350000	-8.306809	-149.230074	-1.175568	59.120781	-1.175568	59.120781	-8.083641	89.927409
6.400000	-8.451043	-151.899162	-1.153238	56.696131	-1.153238	56.696131	-8.209782	87.808754
6.450000	-8.602603	-154.603054	-1.130566	54.260866	-1.130566	54.260866	-8.342138	85.702449
6.500000	-8.761698	-157.344827	-1.107623	51.814820	-1.107623	51.814820	-8.480839	83.610964
6.550000	-8.928537	-160.127831	-1.084480	49.357848	-1.084480	49.357848	-8.626007	81.537028
6.600000	-9.103327	-162.955721	-1.061210	46.889830	-1.061210	46.889830	-8.777756	79.483656
6.650000	-9.286268	-165.832495	-1.037889	44.410666	-1.037889	44.410666	-8.936188	77.454176
6.700000	-9.477549	-168.762537	-1.014593	41.920285	-1.014593	41.920285	-9.101386	75.452255
6.750000	-9.677342	-171.750664	-0.991397	39.418636	-0.991397	39.418636	-9.273414	73.481926
6.800000	-9.885797	-174.802172	-0.968382	36.905699	-0.968382	36.905699	-9.452304	71.547619
6.850000	-10.103028	-177.922896	-0.945624	34.381476	-0.945624	34.381476	-9.638053	69.654190
6.900000	-10.329133	178.879830	-0.923207	31.845876	-0.923207	31.845876	-9.830636	67.807520
6.950000	-10.564106	175.598649	-0.901212	29.298958	-0.901212	29.298958	-10.029930	66.013618
7.000000	-10.807833	172.226517	-0.879717	26.740931	-0.879717	26.740931	-10.235720	64.278316
7.050000	-11.060139	168.754785	-0.858798	24.171908	-0.858798	24.171908	-10.447732	62.608468
7.100000	-11.320712	165.173969	-0.838535	21.592030	-0.838535	21.592030	-10.665583	61.011448
7.150000	-11.589081	161.473718	-0.819004	19.001462	-0.819004	19.001462	-10.888762	59.495137
7.200000	-11.864564	157.642815	-0.800282	16.400400	-0.800282	16.400400	-11.116596	58.067876
7.250000	-12.146227	153.669217	-0.782443	13.789062	-0.782443	13.789062	-11.348229	56.738400
7.300000	-12.432818	149.540165	-0.765560	11.167695	-0.765560	11.167695	-11.582587	55.515714
7.350000	-12.722712	145.242394	-0.749704	8.536568	-0.749704	8.536568	-11.818338	54.408917
7.400000	-13.013829	140.762472	-0.734945	5.895977	-0.734945	5.895977	-12.053868	53.426955
7.450000	-13.303566	136.087302	-0.721349	3.246239	-0.721349	3.246239	-12.287238	52.578284
7.500000	-13.588731	131.204851	-0.708982	0.587695	-0.708982	0.587695	-12.516164	51.870440
7.550000	-13.865016	126.100231	-0.697933	-2.079470	-0.697933	-2.079470	-12.737656	51.312777
7.600000	-14.128198	120.771510	-0.688235	-4.754682	-0.688235	-4.754682	-12.948923	50.906009
7.650000	-14.373132	115.217138	-0.679943	-7.437540	-0.679943	-7.437540	-13.146616	50.650998
7.700000	-14.594174	109.442061	-0.673110	-10.127625	-0.673110	-10.127625	-13.327129	50.544930
7.750000	-14.785399	103.459254	-0.667786	-12.824505	-0.667786	-12.824505	-13.486706	50.580597
7.800000	-14.940929	97.290891	-0.664015	-15.527731	-0.664015	-15.527731	-13.621589	50.745825
7.850000	-15.055350	90.968818	-0.661839	-18.236843	-0.661839	-18.236843	-13.728216	51.023177
7.900000	-15.124179	84.534004	-0.661298	-20.951369	-0.661298	-20.951369	-13.803431	51.390033
7.950000	-15.144310	78.034821	-0.662425	-23.670827	-0.662425	-23.670827	-13.844711	51.819148
8.000000	-15.114353	71.524200	-0.665253	-26.394726	-0.665253	-26.394726	-13.850358	52.279683
8.050000	-15.034800	65.056047	-0.669809	-29.122569	-0.669809	-29.122569	-13.819644	52.738670
8.100000	-14.907963	58.681486	-0.676116	-31.853853	-0.676116	-31.853853	-13.752873	53.162736
8.150000	-14.737261	52.447476	-0.684214	-34.588096	-0.684214	-34.588096	-13.650988	53.518827
8.200000	-14.527867	46.391511	-0.694120	-37.324769	-0.694120	-37.324769	-13.516267	53.777114
8.250000	-14.286031	40.538404	-0.705826	-40.063328	-0.705826	-40.063328	-13.352061	53.913934
8.300000	-14.017718	34.904969	-0.719342	-42.803260	-0.719342	-42.803260	-13.161826	53.909968
8.350000	-13.728736	29.499443	-0.734672	-45.544051	-0.734672	-45.544051	-12.949289	53.751201
8.400000	-13.424473	24.322915	-0.751817	-48.285190	-0.751817	-48.285190	-12.718247	53.428747
8.450000	-13.109738	19.370931	-0.770777	-51.026168	-0.770777	-51.026168	-12.472396	52.938358
8.500000	-12.788689	14.635033	-0.791544	-53.766480	-0.791544	-53.766480	-12.215212	52.279742
8.550000	-12.464826	10.104126	-0.814110	-56.505623	-0.814110	-56.505623	-11.949864	51.455814
8.600000	-12.141029	5.765572	-0.838461	-59.243102	-0.838461	-59.243102	-11.679175	50.471936
8.650000	-11.819618	1.606042	-0.864582	-61.978427	-0.864582	-61.978427	-11.405605	49.335239
8.700000	-11.502428	-2.387869	-0.892454	-64.711115	-0.892454	-64.711115	-11.131260	48.054026
8.750000	-11.190880	-6.229223	-0.922052	-67.440690	-0.922052	-67.440690	-10.857913	46.637290
8.800000	-10.885992	-9.927692	-0.953384	-70.166598	-0.953384	-70.166598	-10.586940	45.091803
8.850000	-10.588671	-13.498210	-0.986384	-72.888451	-0.986384	-72.888451	-10.319699	43.429826
8.900000	-10.299475	-16.951541	-1.021018	-75.605803	-1.021018	-75.605803	-10.057156	41.660464
8.950000	-10.018782	-20.297577	-1.057249	-78.318223	-1.057249	-78.318223	-9.800076	39.792477
9.000000	-9.746827	-23.545364	-1.095037	-81.025289	-1.095037	-81.025289	-9.549059	37.834197
9.050000	-9.483735	-26.703139	-1.134337	-83.726598	-1.134337	-83.726598	-9.304566	35.793471
9.100000	-9.229543	-29.778386	-1.175102	-86.421759	-1.175102	-86.421759	-9.066942	33.677640
9.150000	-8.984222	-32.777891	-1.217281	-89.110401	-1.217281	-89.110401	-8.836436	31.493530
9.200000	-8.747647	-35.708940	-1.260800	-91.792302	-1.260800	-91.792302	-8.613186	29.248460
9.250000	-8.519941	-38.571571	-1.305696	-94.466460	-1.305696	-94.466460	-8.397493	26.943462
9.300000	-8.300570	-41.379622	-1.351758	-97.133639	-1.351758	-97.133639	-8.189102	24.591525
9.350000	-8.089707	-44.131031	-1.399034	-99.792669	-1.399034	-99.792669	-7.988316	22.191920
9.400000	-7.886990	-46.833009	-1.447404	-102.443748	-1.447404	-102.443748	-7.794955	19.751724
9.450000	-7.692238	-49.489320	-1.496800	-105.086645	-1.496800	-105.086645	-7.608983	17.275074
9.500000	-7.505468	-52.100838	-1.547186	-107.720670	-1.547186	-107.720670	-7.430539	14.763761
9.550000	-7.326064	-54.675462	-1.598416	-110.346651	-1.598416	-110.346651	-7.259127	12.224877
9.600000	-7.154508	-57.209466	-1.650501	-112.962930	-1.650501	-112.962930	-7.095342	9.656799
9.650000	-6.989856	-59.712402	-1.703272	-115.571118	-1.703272	-115.571118	-6.938312	7.067340
9.700000	-6.832639	-62.180927	-1.756706	-118.169605	-1.756706	-118.169605	-6.788681	4.455290
9.750000	-6.682122	-64.621447	-1.810681	-120.759585	-1.810681	-120.759585	-6.645755	1.825790
9.800000	-6.538469	-67.033771	-1.865122	-123.340394	-1.865122	-123.340394	-6.509790	-0.820291
9.850000	-6.401439	-69.420301	-1.919940	-125.912276	-1.919940	-125.912276	-6.380594	-3.480617
9.900000	-6.270716	-71.783723	-1.975045	-128.475692	-1.975045	-128.475692	-6.257887	-6.152821
9.950000	-6.146581	-74.123424	-2.030335	-131.029978	-2.030335	-131.029978	-6.142042	-8.836295
10.000000	-6.028213	-76.444196	-2.085754	-133.576660	-2.085754	-133.576660	-6.032200	-11.527998
