! freq	dB(S11)	phase(S11)	dB(S12)	phase(S12)	
!     	dB(S21)	phase(S21)	dB(S22)	phase(S22)	
!S-par simulation data
#  GHz  S  DB  R 50
0.000000	-0.000000	0.000000	-304.359637	0.000000	-304.359637	0.000000	-0.000000	0.000000
0.050000	-0.000085	-0.911172	-93.699415	65.749111	-93.699415	65.749111	-0.000088	-0.911535
0.100000	-0.000339	-1.822178	-90.397034	58.647913	-90.397034	58.647913	-0.000351	-1.822892
0.150000	-0.000756	-2.732860	-88.793718	60.227247	-88.793718	60.227247	-0.000782	-2.733899
0.200000	-0.001325	-3.643074	-87.429884	64.399909	-87.429884	64.399909	-0.001371	-3.644407
0.250000	-0.002046	-4.552648	-86.076267	68.660782	-86.076267	68.660782	-0.002113	-4.554231
0.300000	-0.002890	-5.461518	-84.760007	72.153032	-84.760007	72.153032	-0.002982	-5.463307
0.350000	-0.003852	-6.369561	-83.509181	74.719634	-83.509181	74.719634	-0.003968	-6.371509
0.400000	-0.004915	-7.276692	-82.347497	76.458334	-82.347497	76.458334	-0.005055	-7.278750
0.450000	-0.006066	-8.182845	-81.283405	77.541148	-81.283405	77.541148	-0.006228	-8.184967
0.500000	-0.007289	-9.087967	-80.315343	78.133093	-80.315343	78.133093	-0.007470	-9.090112
0.550000	-0.008570	-9.992023	-79.436705	78.368499	-79.436705	78.368499	-0.008767	-9.994154
0.600000	-0.009896	-10.894988	-78.638974	78.349739	-78.638974	78.349739	-0.010106	-10.897074
0.650000	-0.011256	-11.796848	-77.913396	78.152754	-77.913396	78.152754	-0.011474	-11.798864
0.700000	-0.012638	-12.697596	-77.251752	77.833432	-77.251752	77.833432	-0.012861	-12.699523
0.750000	-0.014035	-13.597233	-76.646657	77.433018	-76.646657	77.433018	-0.014258	-13.599057
0.800000	-0.015438	-14.495761	-76.091617	76.982237	-76.091617	76.982237	-0.015658	-14.497474
0.850000	-0.016840	-15.393186	-75.580969	76.504295	-75.580969	76.504295	-0.017054	-15.394784
0.900000	-0.018238	-16.289514	-75.109791	76.017026	-75.109791	76.017026	-0.018443	-16.290998
0.950000	-0.019625	-17.184754	-74.673790	75.534401	-74.673790	75.534401	-0.019819	-17.186125
1.000000	-0.021000	-18.078909	-74.269203	75.067601	-74.269203	75.067601	-0.021181	-18.080174
1.050000	-0.022361	-18.971985	-73.892698	74.625767	-73.892698	74.625767	-0.022527	-18.973151
1.100000	-0.023705	-19.863983	-73.541301	74.216530	-73.541301	74.216530	-0.023856	-19.865059
1.150000	-0.025031	-20.754904	-73.212323	73.846375	-73.212323	73.846375	-0.025167	-20.755899
1.200000	-0.026340	-21.644746	-72.903302	73.520903	-72.903302	73.520903	-0.026460	-21.645669
1.250000	-0.027631	-22.533504	-72.611954	73.244989	-72.611954	73.244989	-0.027735	-22.534367
1.300000	-0.028905	-23.421125	-72.336351	73.025404	-72.336351	73.025404	-0.028993	-23.421937
1.350000	-0.030161	-24.307647	-72.074114	72.863610	-72.074114	72.863610	-0.030235	-24.308417
1.400000	-0.031402	-25.193059	-71.823256	72.762667	-71.823256	72.762667	-0.031461	-25.193797
1.450000	-0.032627	-26.077349	-71.581836	72.725059	-71.581836	72.725059	-0.032674	-26.078064
1.500000	-0.033839	-26.960504	-71.347947	72.752644	-71.347947	72.752644	-0.033873	-26.961203
1.550000	-0.035038	-27.842508	-71.119697	72.846582	-71.119697	72.846582	-0.035061	-27.843200
1.600000	-0.036225	-28.723347	-70.895209	73.007252	-70.895209	73.007252	-0.036238	-28.724037
1.650000	-0.037402	-29.603003	-70.672615	73.234163	-70.672615	73.234163	-0.037406	-29.603697
1.700000	-0.038569	-30.481458	-70.450062	73.525854	-70.450062	73.525854	-0.038565	-30.482162
1.750000	-0.039728	-31.358696	-70.225720	73.879809	-70.225720	73.879809	-0.039717	-31.359414
1.800000	-0.040880	-32.234697	-69.997800	74.292377	-69.997800	74.292377	-0.040863	-32.235434
1.850000	-0.042026	-33.109443	-69.764572	74.758718	-69.764572	74.758718	-0.042004	-33.110202
1.900000	-0.043167	-33.982915	-69.524389	75.272784	-69.524389	75.272784	-0.043141	-33.983699
1.950000	-0.044304	-34.855095	-69.275718	75.827331	-69.275718	75.827331	-0.044274	-34.855906
2.000000	-0.045437	-35.725963	-69.017165	76.413984	-69.017165	76.413984	-0.045406	-35.726805
2.050000	-0.046569	-36.595503	-68.747503	77.023346	-68.747503	77.023346	-0.046536	-36.596376
2.100000	-0.047699	-37.463696	-68.465699	77.645157	-68.465699	77.645157	-0.047665	-37.464601
2.150000	-0.048829	-38.330524	-68.170933	78.268493	-68.170933	78.268493	-0.048794	-38.331463
2.200000	-0.049960	-39.195971	-67.862610	78.882003	-67.862610	78.882003	-0.049925	-39.196944
2.250000	-0.051091	-40.060019	-67.540366	79.474166	-67.540366	79.474166	-0.051057	-40.061028
2.300000	-0.052224	-40.922654	-67.204065	80.033553	-67.204065	80.033553	-0.052191	-40.923698
2.350000	-0.053360	-41.783861	-66.853784	80.549080	-66.853784	80.549080	-0.053328	-41.784940
2.400000	-0.054499	-42.643625	-66.489792	81.010240	-66.489792	81.010240	-0.054468	-42.644739
2.450000	-0.055642	-43.501933	-66.112523	81.407289	-66.112523	81.407289	-0.055613	-43.503082
2.500000	-0.056789	-44.358773	-65.722542	81.731401	-65.722542	81.731401	-0.056762	-44.359957
2.550000	-0.057942	-45.214069	-65.319179	81.970926	-65.319179	81.970926	-0.057916	-45.215287
2.600000	-0.059100	-46.067876	-64.904455	82.122420	-64.904455	82.122420	-0.059077	-46.069128
2.650000	-0.060265	-46.920184	-64.479119	82.180308	-64.479119	82.180308	-0.060244	-46.921470
2.700000	-0.061436	-47.770988	-64.043905	82.140007	-64.043905	82.140007	-0.061417	-47.772307
2.750000	-0.062615	-48.620282	-63.599503	81.997844	-63.599503	81.997844	-0.062598	-48.621634
2.800000	-0.063801	-49.468061	-63.146529	81.750949	-63.146529	81.750949	-0.063786	-49.469446
2.850000	-0.064996	-50.314326	-62.685508	81.397138	-62.685508	81.397138	-0.064983	-50.315742
2.900000	-0.066200	-51.159075	-62.216852	80.934789	-62.216852	80.934789	-0.066189	-51.160524
2.950000	-0.067413	-52.002313	-61.740839	80.362716	-61.740839	80.362716	-0.067405	-52.003793
3.000000	-0.068637	-52.844045	-61.257608	79.680042	-61.257608	79.680042	-0.068630	-52.845556
3.050000	-0.069871	-53.684279	-60.767137	78.886087	-60.767137	78.886087	-0.069865	-53.685822
3.100000	-0.071116	-54.523029	-60.269235	77.980252	-60.269235	77.980252	-0.071112	-54.524604
3.150000	-0.072373	-55.360312	-59.763524	76.961921	-59.763524	76.961921	-0.072371	-55.361918
3.200000	-0.073643	-56.196148	-59.249428	75.830368	-59.249428	75.830368	-0.073642	-56.197786
3.250000	-0.074927	-57.030567	-58.726149	74.584668	-58.726149	74.584668	-0.074926	-57.032237
3.300000	-0.076224	-57.863603	-58.192648	73.223616	-58.192648	73.223616	-0.076225	-57.865306
3.350000	-0.077537	-58.695300	-57.647614	71.745658	-57.647614	71.745658	-0.077539	-58.697036
3.400000	-0.078867	-59.525712	-57.089427	70.148809	-57.089427	70.148809	-0.078869	-59.527481
3.450000	-0.080214	-60.354907	-56.516114	68.430587	-56.516114	68.430587	-0.080217	-60.356711
3.500000	-0.081580	-61.182968	-55.925287	66.587929	-55.925287	66.587929	-0.081584	-61.184808
3.550000	-0.082969	-62.010003	-55.314070	64.617108	-55.314070	64.617108	-0.082972	-62.011880
3.600000	-0.084381	-62.836144	-54.679000	62.513626	-54.679000	62.513626	-0.084385	-62.838059
3.650000	-0.085822	-63.661562	-54.015901	60.272081	-54.015901	60.272081	-0.085826	-63.663517
3.700000	-0.087295	-64.486477	-53.319718	57.885990	-53.319718	57.885990	-0.087299	-64.488474
3.750000	-0.088806	-65.311174	-52.584293	55.347531	-52.584293	55.347531	-0.088810	-65.313217
3.800000	-0.090369	-66.136068	-51.796165	52.639548	-51.796165	52.639548	-0.090373	-66.138159
3.850000	-0.091994	-66.961712	-50.949478	49.756366	-50.949478	49.756366	-0.091998	-66.963855
3.900000	-0.093705	-67.788865	-50.031270	46.682096	-50.031270	46.682096	-0.093709	-67.791066
3.950000	-0.095536	-68.618630	-49.024606	43.395339	-49.024606	43.395339	-0.095540	-68.620896
4.000000	-0.097534	-69.452352	-47.921109	39.880261	-47.921109	39.880261	-0.097539	-69.454691
4.050000	-0.099818	-70.292948	-46.668525	36.068692	-46.668525	36.068692	-0.099824	-70.295374
4.100000	-0.102556	-71.143910	-45.247902	31.911998	-45.247902	31.911998	-0.102563	-71.146441
4.150000	-0.106200	-72.013449	-43.564412	27.255541	-43.564412	27.255541	-0.106210	-72.016115
4.200000	-0.111710	-72.915063	-41.531322	21.864320	-41.531322	21.864320	-0.111726	-72.917916
4.250000	-0.122012	-73.880382	-38.944558	15.137868	-38.944558	15.137868	-0.122040	-73.883519
4.300000	-0.148073	-74.986455	-35.433571	5.405065	-35.433571	5.405065	-0.148137	-74.990091
4.350000	-0.257518	-76.404400	-30.137038	-14.472322	-30.137038	-14.472322	-0.257743	-76.409015
4.400000	-0.637669	-75.276461	-24.938856	-80.892888	-24.938856	-80.892888	-0.638470	-75.278149
4.450000	-0.247574	-74.855254	-30.635125	-138.512045	-30.635125	-138.512045	-0.247772	-74.855232
4.500000	-0.158602	-76.184321	-35.268460	-156.264296	-35.268460	-156.264296	-0.158667	-76.185161
4.550000	-0.136748	-77.245294	-38.261823	-165.850592	-38.261823	-165.850592	-0.136779	-77.246581
4.600000	-0.129245	-78.182954	-40.386740	-172.952001	-40.386740	-172.952001	-0.129263	-78.184505
4.650000	-0.126482	-79.061113	-41.978134	-178.981417	-41.978134	-178.981417	-0.126493	-79.062839
4.700000	-0.125676	-79.907280	-43.225617	175.544145	-43.225617	175.544145	-0.125684	-79.909138
4.750000	-0.125872	-80.733356	-44.216816	170.423448	-44.216816	170.423448	-0.125878	-80.735317
4.800000	-0.126642	-81.545647	-45.005961	165.562653	-45.005961	165.562653	-0.126646	-81.547693
4.850000	-0.127730	-82.349068	-45.659118	160.887972	-45.659118	160.887972	-0.127733	-82.351189
4.900000	-0.129059	-83.144835	-46.181042	156.397143	-46.181042	156.397143	-0.129062	-83.147020
4.950000	-0.130551	-83.934819	-46.601166	152.067279	-46.601166	152.067279	-0.130553	-83.937062
5.000000	-0.132156	-84.720383	-46.943618	147.878242	-46.943618	147.878242	-0.132158	-84.722681
5.050000	-0.133905	-85.499727	-47.172642	143.921617	-47.172642	143.921617	-0.133907	-85.502072
5.100000	-0.135654	-86.279071	-47.407868	139.964992	-47.407868	139.964992	-0.135657	-86.281463
5.150000	-0.137530	-87.052452	-47.542272	136.269193	-47.542272	136.269193	-0.137532	-87.054886
5.200000	-0.139417	-87.825291	-47.668938	132.597105	-47.668938	132.597105	-0.139420	-87.827767
5.250000	-0.141394	-88.593650	-47.731228	129.144062	-47.731228	129.144062	-0.141397	-88.596164
5.300000	-0.143388	-89.361114	-47.780681	125.734828	-47.780681	125.734828	-0.143392	-89.363665
5.350000	-0.145453	-90.125071	-47.788529	122.504533	-47.788529	122.504533	-0.145456	-90.127656
5.400000	-0.147540	-90.887859	-47.782453	119.333883	-47.782453	119.333883	-0.147544	-90.890477
5.450000	-0.149685	-91.647843	-47.749489	116.305318	-47.749489	116.305318	-0.149689	-91.650492
5.500000	-0.151858	-92.406425	-47.703284	113.347795	-47.703284	113.347795	-0.151862	-92.409104
5.550000	-0.154078	-93.162750	-47.639923	110.500053	-47.639923	110.500053	-0.154083	-93.165457
5.600000	-0.156332	-93.917463	-47.564703	107.730727	-47.564703	107.730727	-0.156337	-93.920196
5.650000	-0.158626	-94.670371	-47.478871	105.043911	-47.478871	105.043911	-0.158631	-94.673129
5.700000	-0.160959	-95.421473	-47.382745	102.439606	-47.382745	102.439606	-0.160965	-95.424255
5.750000	-0.163326	-96.171159	-47.280463	99.895404	-47.280463	99.895404	-0.163332	-96.173963
5.800000	-0.165739	-96.918861	-47.169403	97.435346	-47.169403	97.435346	-0.165745	-96.921686
5.850000	-0.168178	-97.665488	-47.055244	95.017320	-47.055244	95.017320	-0.168184	-97.668334
5.900000	-0.170670	-98.409969	-46.933685	92.683357	-46.933685	92.683357	-0.170677	-98.412832
5.950000	-0.173183	-99.153683	-46.811133	90.377024	-46.811133	90.377024	-0.173189	-99.156563
6.000000	-0.175755	-99.895100	-46.682394	88.153580	-46.682394	88.153580	-0.175761	-99.897996
6.050000	-0.178342	-100.636031	-46.554113	85.946360	-46.554113	85.946360	-0.178347	-100.638942
6.100000	-0.180995	-101.374532	-46.420701	83.820256	-46.420701	83.820256	-0.181000	-101.377455
6.150000	-0.183657	-102.112802	-46.288736	81.701344	-46.288736	81.701344	-0.183661	-102.115737
6.200000	-0.186393	-102.848525	-46.152563	79.661553	-46.152563	79.661553	-0.186397	-102.851471
6.250000	-0.189131	-103.584249	-46.018493	77.621761	-46.018493	77.621761	-0.189134	-103.587204
6.300000	-0.191951	-104.317330	-45.881034	75.659165	-45.881034	75.659165	-0.191954	-104.320293
6.350000	-0.194773	-105.050410	-45.745717	73.696569	-45.745717	73.696569	-0.194775	-105.053381
6.400000	-0.197673	-105.781191	-45.608491	71.797925	-45.608491	71.797925	-0.197674	-105.784167
6.450000	-0.200582	-106.511762	-45.473043	69.905094	-45.473043	69.905094	-0.200581	-106.514743
6.500000	-0.203562	-107.240354	-45.336810	68.065456	-45.336810	68.065456	-0.203561	-107.243338
6.550000	-0.206559	-107.968549	-45.202116	66.236458	-45.202116	66.236458	-0.206555	-107.971537
6.600000	-0.209622	-108.695065	-45.067491	64.451899	-45.067491	64.451899	-0.209617	-108.698054
6.650000	-0.212709	-109.421020	-44.934268	62.682153	-44.934268	62.682153	-0.212703	-109.424011
6.700000	-0.215857	-110.145575	-44.801761	60.949693	-44.801761	60.949693	-0.215849	-110.148567
6.750000	-0.219036	-110.869431	-44.670607	59.235875	-44.670607	59.235875	-0.219026	-110.872422
6.800000	-0.222270	-111.592145	-44.540649	57.553450	-44.540649	57.553450	-0.222259	-111.595136
6.850000	-0.225545	-112.314045	-44.412077	55.893448	-44.412077	55.893448	-0.225532	-112.317034
6.900000	-0.228868	-113.035044	-44.285048	54.259909	-44.285048	54.259909	-0.228853	-113.038031
6.950000	-0.232241	-113.755141	-44.159522	52.652833	-44.159522	52.652833	-0.232223	-113.758126
7.000000	-0.235655	-114.474554	-44.035766	51.067986	-44.035766	51.067986	-0.235636	-114.477536
7.050000	-0.239129	-115.193010	-43.913724	49.514260	-43.913724	49.514260	-0.239108	-115.195989
7.100000	-0.242638	-115.910977	-43.793570	47.978955	-43.793570	47.978955	-0.242615	-115.913953
7.150000	-0.246217	-116.627965	-43.675447	46.480493	-43.675447	46.480493	-0.246191	-116.630939
7.200000	-0.249823	-117.344634	-43.559226	44.996777	-43.559226	44.996777	-0.249796	-117.347605
7.250000	-0.253511	-118.060344	-43.445478	43.557300	-43.445478	43.557300	-0.253482	-118.063312
7.300000	-0.257220	-118.775876	-43.333534	42.128657	-43.333534	42.128657	-0.257189	-118.778843
7.350000	-0.261023	-119.490518	-43.224660	40.754188	-43.224660	40.754188	-0.260990	-119.493484
7.400000	-0.264838	-120.205092	-43.117367	39.385897	-43.117367	39.385897	-0.264803	-120.208056
7.450000	-0.268763	-120.918905	-43.013926	38.085560	-43.013926	38.085560	-0.268727	-120.921870
7.500000	-0.272690	-121.632718	-42.911703	36.785222	-42.911703	36.785222	-0.272653	-121.635684
7.550000	-0.276747	-122.345979	-42.814332	35.572495	-42.814332	35.572495	-0.276709	-122.348950
7.600000	-0.280806	-123.059241	-42.718041	34.359768	-42.718041	34.359768	-0.280767	-123.062215
7.650000	-0.284996	-123.772302	-42.627062	33.245562	-42.627062	33.245562	-0.284956	-123.775284
7.700000	-0.289199	-124.485345	-42.537410	32.140314	-42.537410	32.140314	-0.289159	-124.488335
7.750000	-0.293536	-125.198552	-42.453401	31.149321	-42.453401	31.149321	-0.293496	-125.201555
7.800000	-0.297901	-125.911792	-42.371134	30.181180	-42.371134	30.181180	-0.297862	-125.914809
7.850000	-0.302408	-126.625587	-42.294582	29.349741	-42.294582	29.349741	-0.302369	-126.628623
7.900000	-0.306963	-127.339567	-42.220332	28.563870	-42.220332	28.563870	-0.306925	-127.342624
7.950000	-0.311629	-128.054213	-42.150203	27.896783	-42.150203	27.896783	-0.311593	-128.057295
8.000000	-0.316432	-128.769800	-42.084467	27.382900	-42.084467	27.382900	-0.316399	-128.772915
8.050000	-0.321370	-129.486495	-42.022130	27.031496	-42.022130	27.031496	-0.321341	-129.489648
8.100000	-0.326467	-130.204608	-41.962336	26.877035	-41.962336	26.877035	-0.326441	-130.207806
8.150000	-0.331750	-130.924532	-41.903479	26.964042	-41.903479	26.964042	-0.331729	-130.927784
8.200000	-0.337260	-131.646766	-41.842688	27.350465	-41.842688	27.350465	-0.337245	-131.650081
8.250000	-0.343052	-132.371961	-41.774943	28.112035	-41.774943	28.112035	-0.343045	-132.375352
8.300000	-0.349206	-133.100990	-41.691534	29.347538	-41.691534	29.347538	-0.349208	-133.104470
8.350000	-0.355789	-133.834501	-41.582295	31.122715	-41.582295	31.122715	-0.355803	-133.838087
8.400000	-0.363074	-134.575096	-41.415020	33.706440	-41.415020	33.706440	-0.363102	-134.578811
8.450000	-0.371278	-135.324421	-41.154296	37.199399	-41.154296	37.199399	-0.371325	-135.328291
8.500000	-0.381006	-136.086937	-40.716025	41.844068	-40.716025	41.844068	-0.381078	-136.091002
8.550000	-0.393117	-136.867586	-39.994781	47.618315	-39.994781	47.618315	-0.393223	-136.871892
8.600000	-0.409613	-137.676044	-38.810638	54.231884	-38.810638	54.231884	-0.409771	-137.680660
8.650000	-0.434899	-138.526574	-36.950983	60.627513	-36.950983	60.627513	-0.435137	-138.531585
8.700000	-0.480660	-139.435177	-34.187501	64.548313	-34.187501	64.548313	-0.481044	-139.440665
8.750000	-0.581611	-140.345413	-30.348839	61.335474	-30.348839	61.335474	-0.582290	-140.351184
8.800000	-0.792191	-140.431688	-25.992632	40.167448	-25.992632	40.167448	-0.793425	-140.435374
8.850000	-0.723843	-138.950491	-25.145026	-0.028516	-25.145026	-0.028516	-0.724823	-138.947424
8.900000	-0.510853	-139.640956	-27.697966	-23.347355	-27.697966	-23.347355	-0.511071	-139.638290
8.950000	-0.441763	-140.763964	-29.923124	-32.021115	-29.923124	-32.021115	-0.441756	-140.763135
9.000000	-0.421540	-141.751966	-31.453158	-35.551728	-31.453158	-35.551728	-0.421478	-141.752343
9.050000	-0.416407	-142.640376	-32.511820	-37.257364	-32.511820	-37.257364	-0.416333	-142.641556
9.100000	-0.416945	-143.470785	-33.263303	-38.265170	-33.263303	-38.265170	-0.416874	-143.472551
9.150000	-0.419950	-144.266882	-33.812367	-39.014541	-33.812367	-39.014541	-0.419886	-144.269117
9.200000	-0.424202	-145.040923	-34.217726	-39.685785	-34.217726	-39.685785	-0.424148	-145.043560
9.250000	-0.429137	-145.800344	-34.519398	-40.362139	-34.519398	-40.362139	-0.429093	-145.803345
9.300000	-0.434443	-146.550731	-34.752971	-41.072384	-34.752971	-41.072384	-0.434409	-146.554078
9.350000	-0.440022	-147.293977	-34.927995	-41.834276	-34.927995	-41.834276	-0.439997	-147.297663
9.400000	-0.445780	-148.032413	-35.060579	-42.648389	-35.060579	-42.648389	-0.445763	-148.036438
9.450000	-0.451676	-148.767332	-35.159155	-43.515368	-35.159155	-43.515368	-0.451668	-148.771704
9.500000	-0.457689	-149.499598	-35.229264	-44.433990	-35.229264	-44.433990	-0.457688	-149.504329
9.550000	-0.463793	-150.230266	-35.279045	-45.396292	-35.279045	-45.396292	-0.463799	-150.235374
9.600000	-0.469970	-150.959908	-35.313848	-46.392952	-35.313848	-46.392952	-0.469981	-150.965409
9.650000	-0.476222	-151.688725	-35.334357	-47.424726	-35.334357	-47.424726	-0.476238	-151.694639
9.700000	-0.482572	-152.417042	-35.339296	-48.499548	-35.339296	-48.499548	-0.482591	-152.423404
9.750000	-0.488984	-153.145334	-35.336154	-49.598810	-35.336154	-49.598810	-0.489006	-153.152167
9.800000	-0.495459	-153.873699	-35.325583	-50.721302	-35.325583	-50.721302	-0.495482	-153.881030
9.850000	-0.502018	-154.602418	-35.306508	-51.872312	-35.306508	-51.872312	-0.502041	-154.610288
9.900000	-0.508656	-155.331734	-35.281072	-53.046533	-35.281072	-53.046533	-0.508677	-155.340182
9.950000	-0.515359	-156.061630	-35.251277	-54.237566	-35.251277	-54.237566	-0.515376	-156.070691
10.000000	-0.522126	-156.792168	-35.217494	-55.444597	-35.217494	-55.444597	-0.522137	-156.801878
