! freq	dB(S11)	phase(S11)	dB(S12)	phase(S12)	
!     	dB(S21)	phase(S21)	dB(S22)	phase(S22)	
!S-par simulation data
#  GHz  S  DB  R 50
0.000000	-145.566498	180.000000	-0.000001	0.000000	-0.000001	0.000000	-145.566498	180.000000
0.050000	-30.403819	-93.752501	-0.009349	-3.310017	-0.009349	-3.310017	-30.403399	-93.560196
0.100000	-24.438954	-97.338937	-0.025575	-6.577638	-0.025575	-6.577638	-24.441429	-96.937169
0.150000	-20.982803	-100.751555	-0.048732	-9.831399	-0.048732	-9.831399	-20.987309	-100.140247
0.200000	-18.553387	-104.041632	-0.079371	-13.067057	-0.079371	-13.067057	-18.559441	-103.244274
0.250000	-16.693821	-107.266774	-0.116967	-16.280984	-0.116967	-16.280984	-16.696595	-106.311904
0.300000	-15.198688	-110.549248	-0.161184	-19.469881	-0.161184	-19.469881	-15.194250	-109.386738
0.350000	-13.940840	-113.845498	-0.211372	-22.632362	-0.211372	-22.632362	-13.937816	-112.469849
0.400000	-12.864376	-117.083279	-0.267304	-25.765307	-0.267304	-25.765307	-12.862796	-115.526039
0.450000	-11.931298	-120.278303	-0.328366	-28.867804	-0.328366	-28.867804	-11.929328	-118.540987
0.500000	-11.114076	-123.438101	-0.394254	-31.937027	-0.394254	-31.937027	-11.111153	-121.514797
0.550000	-10.391405	-126.564926	-0.464441	-34.971774	-0.464441	-34.971774	-10.387577	-124.450546
0.600000	-9.747434	-129.658550	-0.538433	-37.970981	-0.538433	-37.970981	-9.742888	-127.349266
0.650000	-9.171048	-132.716648	-0.615843	-40.932148	-0.615843	-40.932148	-9.165971	-130.209229
0.700000	-8.652175	-135.739079	-0.696104	-43.855346	-0.696104	-43.855346	-8.646719	-133.030698
0.750000	-8.183212	-138.725173	-0.778732	-46.740093	-0.778732	-46.740093	-8.177491	-135.813104
0.800000	-7.757993	-141.674485	-0.863254	-49.586103	-0.863254	-49.586103	-7.752091	-138.555986
0.850000	-7.371792	-144.586105	-0.949209	-52.392557	-0.949209	-52.392557	-7.365772	-141.258296
0.900000	-7.020061	-147.460603	-1.036120	-55.160128	-1.036120	-55.160128	-7.013962	-143.920509
0.950000	-6.698953	-150.298786	-1.123553	-57.889690	-1.123553	-57.889690	-6.692802	-146.543323
1.000000	-6.405346	-153.101316	-1.211095	-60.581924	-1.211095	-60.581924	-6.399157	-149.127244
1.050000	-6.136734	-155.868617	-1.298337	-63.237223	-1.298337	-63.237223	-6.130515	-151.672478
1.100000	-5.891415	-158.600199	-1.384802	-65.854983	-1.384802	-65.854983	-5.885163	-154.178162
1.150000	-5.665728	-161.300964	-1.470339	-68.440255	-1.470339	-68.440255	-5.659435	-156.649419
1.200000	-5.458370	-163.971132	-1.554585	-70.993143	-1.554585	-70.993143	-5.452025	-159.086153
1.250000	-5.268963	-166.609208	-1.636997	-73.511895	-1.636997	-73.511895	-5.262550	-161.486238
1.300000	-5.094276	-169.221087	-1.717678	-76.002609	-1.717678	-76.002609	-5.087777	-163.855984
1.350000	-4.934536	-171.804820	-1.796013	-78.462983	-1.796013	-78.462983	-4.927929	-166.192612
1.400000	-4.787988	-174.363582	-1.871927	-80.896205	-1.871927	-80.896205	-4.781250	-168.499302
1.450000	-4.652998	-176.900570	-1.945432	-83.305519	-1.945432	-83.305519	-4.646106	-170.779342
1.500000	-4.530491	-179.413340	-2.015682	-85.687908	-2.015682	-85.687908	-4.523416	-173.028953
1.550000	-4.417850	178.092199	-2.083174	-88.049629	-2.083174	-88.049629	-4.410565	-175.254833
1.600000	-4.315123	175.615955	-2.147456	-90.390436	-2.147456	-90.390436	-4.307600	-177.456278
1.650000	-4.221961	173.156701	-2.208245	-92.711307	-2.208245	-92.711307	-4.214168	-179.633929
1.700000	-4.137236	170.711498	-2.265670	-95.015230	-2.265670	-95.015230	-4.129143	178.209187
1.750000	-4.060379	168.278523	-2.319674	-97.303921	-2.319674	-97.303921	-4.051955	176.071510
1.800000	-3.991518	165.856914	-2.369837	-99.577819	-2.369837	-99.577819	-3.982728	173.953179
1.850000	-3.930275	163.444742	-2.416036	-101.838636	-2.416036	-101.838636	-3.921082	171.852800
1.900000	-3.875891	161.039631	-2.458431	-104.088764	-2.458431	-104.088764	-3.866261	169.767986
1.950000	-3.828080	158.639854	-2.496952	-106.329734	-2.496952	-106.329734	-3.817974	167.697497
2.000000	-3.786589	156.243681	-2.531534	-108.563069	-2.531534	-108.563069	-3.775969	165.640117
2.050000	-3.751206	153.849371	-2.562124	-110.790287	-2.562124	-110.790287	-3.740029	163.594662
2.100000	-3.721749	151.455179	-2.588676	-113.012900	-2.588676	-113.012900	-3.709972	161.559976
2.150000	-3.698654	149.058986	-2.610716	-115.232247	-2.610716	-115.232247	-3.686225	159.535827
2.200000	-3.681273	146.658978	-2.628594	-117.450276	-2.628594	-117.450276	-3.668142	157.520125
2.250000	-3.669454	144.253377	-2.642338	-119.668523	-2.642338	-119.668523	-3.655567	155.511702
2.300000	-3.663144	141.840356	-2.651931	-121.888491	-2.651931	-121.888491	-3.648442	153.509539
2.350000	-3.662315	139.418059	-2.657363	-124.111683	-2.657363	-124.111683	-3.646736	151.512653
2.400000	-3.666970	136.984592	-2.658632	-126.339605	-2.658632	-126.339605	-3.650446	149.520094
2.450000	-3.677344	134.537463	-2.655590	-128.574056	-2.655590	-128.574056	-3.659798	147.531044
2.500000	-3.693744	132.073753	-2.648072	-130.817093	-2.648072	-130.817093	-3.675086	145.544627
2.550000	-3.715822	129.592482	-2.636429	-133.069714	-2.636429	-133.069714	-3.695963	143.559768
2.600000	-3.743705	127.091530	-2.620688	-135.333437	-2.620688	-135.333437	-3.722543	141.575702
2.650000	-3.777547	124.568702	-2.600882	-137.609781	-2.600882	-137.609781	-3.754971	139.591717
2.700000	-3.817537	122.021720	-2.577050	-139.900274	-2.577050	-139.900274	-3.793424	137.607163
2.750000	-3.863898	119.448212	-2.549236	-142.206449	-2.549236	-142.206449	-3.838111	135.621455
2.800000	-3.917458	116.842979	-2.517148	-144.531474	-2.517148	-144.531474	-3.889829	133.633906
2.850000	-3.978201	114.204675	-2.481065	-146.876177	-2.481065	-146.876177	-3.948548	131.644158
2.900000	-4.046285	111.531425	-2.441176	-149.241643	-2.441176	-149.241643	-4.014411	129.651980
2.950000	-4.122113	108.820296	-2.397550	-151.629539	-2.397550	-151.629539	-4.087793	127.657217
3.000000	-4.206141	106.068178	-2.350267	-154.041585	-2.350267	-154.041585	-4.169119	125.659859
3.050000	-4.298883	103.271760	-2.299421	-156.479551	-2.299421	-156.479551	-4.258868	123.660071
3.100000	-4.401426	100.424428	-2.244900	-158.947019	-2.244900	-158.947019	-4.358069	121.658146
3.150000	-4.514053	97.524509	-2.187013	-161.444599	-2.187013	-161.444599	-4.466964	119.654846
3.200000	-4.637435	94.568139	-2.125944	-163.974016	-2.125944	-163.974016	-4.586167	117.651199
3.250000	-4.772986	91.547112	-2.061657	-166.539241	-2.061657	-166.539241	-4.716998	115.648637
3.300000	-4.920477	88.463837	-1.994741	-169.138200	-1.994741	-169.138200	-4.859190	113.648770
3.350000	-5.082526	85.302594	-1.924932	-171.778342	-1.924932	-171.778342	-5.015186	111.654607
3.400000	-5.259372	82.063375	-1.852773	-174.458359	-1.852773	-174.458359	-5.185141	109.668978
3.450000	-5.452574	78.737820	-1.778475	-177.181007	-1.778475	-177.181007	-5.370445	107.696021
3.500000	-5.663661	75.317964	-1.702340	-179.948337	-1.702340	-179.948337	-5.572434	105.740857
3.550000	-5.894358	71.794749	-1.624700	177.237629	-1.624700	177.237629	-5.792593	103.809923
3.600000	-6.146610	68.157770	-1.545921	174.374925	-1.545921	174.374925	-6.032562	101.911284
3.650000	-6.422611	64.394938	-1.466405	171.461650	-1.466405	171.461650	-6.294158	100.055030
3.700000	-6.724842	60.492042	-1.386591	168.496003	-1.386591	168.496003	-6.579374	98.253781
3.750000	-7.056103	56.432163	-1.306955	165.476308	-1.306955	165.476308	-6.890392	96.523338
3.800000	-7.419972	52.190443	-1.228030	162.399808	-1.228030	162.399808	-7.229918	94.886056
3.850000	-7.819619	47.744873	-1.150387	159.266372	-1.150387	159.266372	-7.600104	93.365747
3.900000	-8.259014	43.063781	-1.074629	156.074936	-1.074629	156.074936	-8.003516	91.994389
3.950000	-8.742548	38.107062	-1.001397	152.824722	-1.001397	152.824722	-8.442677	90.812463
4.000000	-9.274977	32.823139	-0.931366	149.515289	-0.931366	149.515289	-8.919849	89.871294
4.050000	-9.861263	27.144680	-0.865246	146.146577	-0.865246	146.146577	-9.436643	89.235961
4.100000	-10.506174	20.982613	-0.803775	142.718959	-0.803775	142.718959	-9.993368	88.988669
4.150000	-11.213454	14.217949	-0.747709	139.233289	-0.747709	139.233289	-10.587940	89.232154
4.200000	-11.984137	6.691242	-0.697820	135.690943	-0.697820	135.690943	-11.214135	90.091887
4.250000	-12.813270	-1.809003	-0.654881	132.093857	-0.654881	132.093857	-11.858928	91.714173
4.300000	-13.683874	-11.553275	-0.619656	128.444553	-0.619656	128.444553	-12.498846	94.254401
4.350000	-14.556860	-22.856515	-0.592889	124.746157	-0.592889	124.746157	-13.095981	97.846208
4.400000	-15.354874	-36.025693	-0.575396	121.001952	-0.575396	121.001952	-13.594020	102.552826
4.450000	-15.956427	-51.116628	-0.567855	117.216421	-0.567855	117.216421	-13.925639	108.248779
4.500000	-16.225955	-67.640746	-0.570756	113.394960	-0.570756	113.394960	-14.032959	114.561128
4.550000	-16.077704	-84.547030	-0.584606	109.542966	-0.584606	109.542966	-13.887365	120.939090
4.600000	-15.538674	-100.619361	-0.609821	105.666253	-0.609821	105.666253	-13.505254	126.805327
4.650000	-14.727658	-115.053671	-0.646718	101.770965	-0.646718	101.770965	-12.939691	131.736317
4.700000	-13.779945	-127.636025	-0.695500	97.863469	-0.695500	97.863469	-12.257222	135.539906
4.750000	-12.796806	-138.537905	-0.756260	93.950247	-0.756260	93.950247	-11.517645	138.218488
4.800000	-11.837911	-148.064553	-0.828970	90.037771	-0.828970	90.037771	-10.765169	139.886365
4.850000	-10.932753	-156.514297	-0.913493	86.132394	-0.913493	86.132394	-10.028428	140.699218
4.900000	-10.093079	-164.131222	-1.009582	82.240229	-1.009582	82.240229	-9.324075	140.812832
4.950000	-9.321284	-171.101419	-1.116886	78.367056	-1.116886	78.367056	-8.660672	140.365108
5.000000	-8.615214	-177.563022	-1.234970	74.518226	-1.234970	74.518226	-8.041722	139.471214
5.050000	-7.971007	176.389136	-1.363480	70.699328	-1.363480	70.699328	-7.467906	138.218744
5.100000	-7.383612	170.669943	-1.501632	66.914098	-1.501632	66.914098	-6.937939	136.691263
5.150000	-6.848019	165.223768	-1.648795	63.166211	-1.648795	63.166211	-6.449599	134.947810
5.200000	-6.359463	160.008258	-1.804306	59.458743	-1.804306	59.458743	-6.000250	133.035599
5.250000	-5.913534	154.990678	-1.967483	55.794171	-1.967483	55.794171	-5.587110	130.992467
5.300000	-5.506207	150.145290	-2.137637	52.174388	-2.137637	52.174388	-5.207402	128.848809
5.350000	-5.133840	145.451501	-2.314086	48.600738	-2.314086	48.600738	-4.858447	126.629107
5.400000	-4.793141	140.892519	-2.496160	45.074043	-2.496160	45.074043	-4.537708	124.353119
5.450000	-4.481147	136.454392	-2.683213	41.594656	-2.683213	41.594656	-4.242807	122.036804
5.500000	-4.195190	132.125309	-2.874630	38.162501	-2.874630	38.162501	-3.971541	119.693057
5.550000	-3.932864	127.895087	-3.069829	34.777124	-3.069829	34.777124	-3.721875	117.332288
5.600000	-3.692006	123.754799	-3.268267	31.437739	-3.268267	31.437739	-3.491939	114.962881
5.650000	-3.470799	119.697299	-3.469415	28.143753	-3.469415	28.143753	-3.280147	112.591607
5.700000	-3.267459	115.715181	-3.672795	24.893803	-3.672795	24.893803	-3.084907	110.223985
5.750000	-3.080257	111.801016	-3.878016	21.685878	-3.878016	21.685878	-2.904654	107.864234
5.800000	-2.907765	107.948750	-4.084706	18.518296	-4.084706	18.518296	-2.738085	105.515657
5.850000	-2.748696	104.152722	-4.292537	15.389242	-4.292537	15.389242	-2.584014	103.180824
5.900000	-2.601888	100.407597	-4.501221	12.296799	-4.501221	12.296799	-2.441363	100.861699
5.950000	-2.466296	96.708305	-4.710508	9.238967	-4.710508	9.238967	-2.309148	98.559752
6.000000	-2.340975	93.049997	-4.920186	6.213688	-4.920186	6.213688	-2.186476	96.276050
6.050000	-2.225073	89.428002	-5.130081	3.218853	-5.130081	3.218853	-2.072536	94.011330
6.100000	-2.117823	85.837794	-5.340050	0.252320	-5.340050	0.252320	-1.966589	91.766061
6.150000	-2.018533	82.274960	-5.549986	-2.688082	-5.549986	-2.688082	-1.867961	89.540497
6.200000	-1.926580	78.735168	-5.759813	-5.604542	-5.759813	-5.604542	-1.776042	87.334718
6.250000	-1.841404	75.214142	-5.969488	-8.499273	-5.969488	-8.499273	-1.690274	85.148667
6.300000	-1.762612	71.707845	-6.178882	-11.374131	-6.178882	-11.374131	-1.610247	82.982598
6.350000	-1.689627	68.211608	-6.388128	-14.231841	-6.388128	-14.231841	-1.535385	80.835824
6.400000	-1.622046	64.721136	-6.597275	-17.074680	-6.597275	-17.074680	-1.465268	78.708027
6.450000	-1.559510	61.232063	-6.806400	-19.904955	-6.806400	-19.904955	-1.399511	76.598839
6.500000	-1.501702	57.739922	-7.015615	-22.725015	-7.015615	-22.725015	-1.337762	74.507859
6.550000	-1.448339	54.240103	-7.225063	-25.537256	-7.225063	-25.537256	-1.279700	72.434659
6.600000	-1.399176	50.727818	-7.434925	-28.344140	-7.434925	-28.344140	-1.225028	70.378796
6.650000	-1.354000	47.198052	-7.645418	-31.148202	-7.645418	-31.148202	-1.173475	68.339816
6.700000	-1.312629	43.645518	-7.856803	-33.952068	-7.856803	-33.952068	-1.124791	66.317259
6.750000	-1.274913	40.064595	-8.069388	-36.758475	-8.069388	-36.758475	-1.078745	64.310663
6.800000	-1.240732	36.449272	-8.283535	-39.570289	-8.283535	-39.570289	-1.035123	62.319566
6.850000	-1.209995	32.793071	-8.499669	-42.390526	-8.499669	-42.390526	-0.993728	60.343508
6.900000	-1.182678	29.088364	-8.718258	-45.222543	-8.718258	-45.222543	-0.954392	58.382181
6.950000	-1.158751	25.327201	-8.939899	-48.069857	-8.939899	-48.069857	-0.916939	56.435111
7.000000	-1.138186	21.501634	-9.165307	-50.935985	-9.165307	-50.935985	-0.881188	54.501678
7.050000	-1.121023	17.602315	-9.395286	-53.824829	-9.395286	-53.824829	-0.846987	52.581415
7.100000	-1.107339	13.618867	-9.630779	-56.740586	-9.630779	-56.740586	-0.814193	50.673845
7.150000	-1.097256	9.539715	-9.872908	-59.687775	-9.872908	-59.687775	-0.782669	48.778479
7.200000	-1.090936	5.351898	-10.122999	-62.671263	-10.122999	-62.671263	-0.752286	46.894804
7.250000	-1.088598	1.040836	-10.382641	-65.696287	-10.382641	-65.696287	-0.722921	45.022277
7.300000	-1.090516	-3.409928	-10.653740	-68.768457	-10.653740	-68.768457	-0.694455	43.160315
7.350000	-1.097027	-8.019028	-10.938602	-71.893741	-10.938602	-71.893741	-0.666775	41.308282
7.400000	-1.108544	-12.807618	-11.240028	-75.078414	-11.240028	-75.078414	-0.639774	39.465472
7.450000	-1.125559	-17.799762	-11.561452	-78.328935	-11.561452	-78.328935	-0.613353	37.631095
7.500000	-1.148656	-23.022870	-11.907113	-81.651742	-11.907113	-81.651742	-0.587420	35.804254
7.550000	-1.178676	-28.514684	-12.282688	-85.054688	-12.282688	-85.054688	-0.561902	33.984038
7.600000	-1.216272	-34.306060	-12.694607	-88.541085	-12.694607	-88.541085	-0.536728	32.169094
7.650000	-1.262172	-40.431504	-13.150881	-92.112180	-13.150881	-92.112180	-0.511860	30.358015
7.700000	-1.317547	-46.946027	-13.662977	-95.769017	-13.662977	-95.769017	-0.487300	28.549359
7.750000	-1.383278	-53.897189	-14.244721	-99.502261	-14.244721	-99.502261	-0.463090	26.741339
7.800000	-1.460276	-61.341347	-14.914640	-103.291219	-14.914640	-103.291219	-0.439341	24.932047
7.850000	-1.549340	-69.344286	-15.698080	-107.093257	-15.698080	-107.093257	-0.416252	23.119433
7.900000	-1.650674	-77.967117	-16.628891	-110.825578	-16.628891	-110.825578	-0.394129	21.301514
7.950000	-1.763732	-87.270426	-17.754591	-114.333079	-17.754591	-114.333079	-0.373404	19.476590
8.000000	-1.886792	-97.309351	-19.143904	-117.316008	-19.143904	-117.316008	-0.354650	17.643549
8.050000	-2.016420	-108.123455	-20.898290	-119.160426	-20.898290	-119.160426	-0.338568	15.802306
8.100000	-2.147022	-119.725103	-23.164021	-118.485692	-23.164021	-118.485692	-0.325951	13.954289
8.150000	-2.270585	-132.089344	-26.077969	-111.742949	-26.077969	-111.742949	-0.317622	12.102875
8.200000	-2.377134	-145.130583	-29.076445	-90.514954	-29.076445	-90.514954	-0.314265	10.253681
8.250000	-2.456348	-158.696719	-29.066686	-55.594032	-29.066686	-55.594032	-0.316249	8.414140
8.300000	-2.499404	-172.580392	-26.051020	-34.534837	-26.051020	-34.534837	-0.323560	6.592711
8.350000	-2.501229	173.467102	-23.124271	-28.153002	-23.124271	-28.153002	-0.335720	4.797658
8.400000	-2.461889	159.705428	-20.865456	-28.103022	-20.865456	-28.103022	-0.351829	3.035715
8.450000	-2.386401	146.372830	-19.147665	-30.750936	-19.147665	-30.750936	-0.370713	1.311168
8.500000	-2.283330	133.660882	-17.827999	-34.625887	-17.827999	-34.625887	-0.391105	-0.374572
8.550000	-2.162861	121.687400	-16.802660	-39.046004	-16.802660	-39.046004	-0.411828	-2.023356
8.600000	-2.034205	110.512527	-15.999952	-43.670284	-15.999952	-43.670284	-0.431963	-3.638654
8.650000	-1.904784	100.146259	-15.368364	-48.312542	-15.368364	-48.312542	-0.450870	-5.224976
8.700000	-1.779888	90.562712	-14.869745	-52.869810	-14.869745	-52.869810	-0.468181	-6.787094
8.750000	-1.662844	81.713573	-14.475208	-57.287039	-14.475208	-57.287039	-0.483749	-8.329493
8.800000	-1.555531	73.545383	-14.163150	-61.535879	-14.163150	-61.535879	-0.497570	-9.855932
8.850000	-1.458521	65.985893	-13.915518	-65.609122	-13.915518	-65.609122	-0.509785	-11.369788
8.900000	-1.371894	58.979754	-13.719515	-69.505319	-13.719515	-69.505319	-0.520552	-12.873398
8.950000	-1.294908	52.452496	-13.563411	-73.236368	-13.563411	-73.236368	-0.530111	-14.368893
9.000000	-1.226959	46.355401	-13.439400	-76.810538	-13.439400	-76.810538	-0.538651	-15.857523
9.050000	-1.167259	40.639126	-13.340867	-80.239401	-13.340867	-80.239401	-0.546368	-17.340265
9.100000	-1.115013	35.259724	-13.262523	-83.534904	-13.262523	-83.534904	-0.553438	-18.817798
9.150000	-1.069464	30.178321	-13.200112	-86.708765	-13.200112	-86.708765	-0.560022	-20.290583
9.200000	-1.029920	25.360666	-13.150183	-89.772138	-13.150183	-89.772138	-0.566258	-21.758923
9.250000	-0.995759	20.776630	-13.109922	-92.735445	-13.109922	-92.735445	-0.572270	-23.223014
9.300000	-0.966436	16.399702	-13.077013	-95.608313	-13.077013	-95.608313	-0.578163	-24.682975
9.350000	-0.941473	12.206522	-13.049537	-98.399578	-13.049537	-98.399578	-0.584029	-26.138877
9.400000	-0.920501	8.178018	-13.025916	-101.116606	-13.025916	-101.116606	-0.589950	-27.590716
9.450000	-0.903160	4.295343	-13.004755	-103.767008	-13.004755	-103.767008	-0.595997	-29.038517
9.500000	-0.889115	0.540558	-12.984870	-106.358298	-12.984870	-106.358298	-0.602231	-30.482340
9.550000	-0.878121	-3.100818	-12.965274	-108.896638	-12.965274	-108.896638	-0.608708	-31.922199
9.600000	-0.869976	-6.641832	-12.945103	-111.387706	-12.945103	-111.387706	-0.615476	-33.358112
9.650000	-0.864517	-10.094316	-12.923596	-113.836765	-12.923596	-113.836765	-0.622581	-34.790102
9.700000	-0.861617	-13.469078	-12.900070	-116.248722	-12.900070	-116.248722	-0.630067	-36.218198
9.750000	-0.861178	-16.776070	-12.873906	-118.628189	-12.873906	-118.628189	-0.637972	-37.642438
9.800000	-0.863238	-20.022502	-12.844358	-120.978563	-12.844358	-120.978563	-0.646357	-39.062702
9.850000	-0.867531	-23.221897	-12.811273	-123.306356	-12.811273	-123.306356	-0.655212	-40.479411
9.900000	-0.874176	-26.379460	-12.773960	-125.614165	-12.773960	-125.614165	-0.664598	-41.892415
9.950000	-0.883192	-29.503070	-12.731937	-127.905942	-12.731937	-127.905942	-0.674554	-43.301775
10.000000	-0.894625	-32.600356	-12.684740	-130.185597	-12.684740	-130.185597	-0.685116	-44.707560
