! freq	dB(S11)	phase(S11)	dB(S12)	phase(S12)	
!     	dB(S21)	phase(S21)	dB(S22)	phase(S22)	
!S-par simulation data
#  GHz  S  DB  R 50
0.000000	-0.000000	0.000000	-359.651964	0.000000	-359.651964	0.000000	-0.000000	0.000000
0.050000	-0.000111	-0.864869	-114.099120	89.203924	-114.099120	89.203924	-0.000111	-0.864731
0.100000	-0.000439	-1.729462	-108.125270	88.417743	-108.125270	88.417743	-0.000439	-1.729187
0.150000	-0.000971	-2.593527	-104.681453	87.651581	-104.681453	87.651581	-0.000971	-2.593114
0.200000	-0.001683	-3.456856	-102.291502	86.915768	-102.291502	86.915768	-0.001683	-3.456303
0.250000	-0.002561	-4.319216	-100.499307	86.224917	-100.499307	86.224917	-0.002562	-4.318524
0.300000	-0.003563	-5.180570	-99.091947	85.588490	-99.091947	85.588490	-0.003564	-5.179738
0.350000	-0.004668	-6.040802	-97.964664	85.023609	-97.964664	85.023609	-0.004669	-6.039829
0.400000	-0.005851	-6.899869	-97.053849	84.548783	-97.053849	84.548783	-0.005852	-6.898756
0.450000	-0.007089	-7.757764	-96.319576	84.186487	-96.319576	84.186487	-0.007090	-7.756511
0.500000	-0.008363	-8.614498	-95.735776	83.964536	-95.735776	83.964536	-0.008363	-8.613106
0.550000	-0.009657	-9.470103	-95.285123	83.917979	-95.285123	83.917979	-0.009656	-9.468572
0.600000	-0.010957	-10.324613	-94.956129	84.091729	-94.956129	84.091729	-0.010956	-10.322946
0.650000	-0.012255	-11.178070	-94.741342	84.544263	-94.741342	84.544263	-0.012253	-11.176267
0.700000	-0.013543	-12.030513	-94.636036	85.352838	-94.636036	85.352838	-0.013541	-12.028574
0.750000	-0.014819	-12.881974	-94.636976	86.620791	-94.636976	86.620791	-0.014815	-12.879902
0.800000	-0.016077	-13.732485	-94.740835	88.487423	-94.740835	88.487423	-0.016073	-13.730280
0.850000	-0.017318	-14.582067	-94.941598	91.140338	-94.941598	91.140338	-0.017314	-14.579731
0.900000	-0.018541	-15.430738	-95.225939	94.827490	-95.225939	94.827490	-0.018536	-15.428272
0.950000	-0.019747	-16.278507	-95.565100	99.858875	-95.565100	99.858875	-0.019741	-16.275912
1.000000	-0.020935	-17.125380	-95.902219	106.571523	-95.902219	106.571523	-0.020928	-17.122657
1.050000	-0.022107	-17.971357	-96.138397	115.209516	-96.138397	115.209516	-0.022101	-17.968507
1.100000	-0.023265	-18.816433	-96.133135	125.681158	-96.133135	125.681158	-0.023258	-18.813457
1.150000	-0.024410	-19.660601	-95.747158	137.288863	-95.747158	137.288863	-0.024403	-19.657500
1.200000	-0.025543	-20.503849	-94.925712	148.778038	-94.925712	148.778038	-0.025535	-20.500623
1.250000	-0.026666	-21.346163	-93.742024	158.924995	-93.742024	158.924995	-0.026658	-21.342814
1.300000	-0.027778	-22.187487	-92.327116	167.036181	-92.327116	167.036181	-0.027770	-22.184015
1.350000	-0.028883	-23.027843	-90.834513	173.230941	-90.834513	173.230941	-0.028875	-23.024249
1.400000	-0.029981	-23.867212	-89.347751	177.819623	-89.347751	177.819623	-0.029973	-23.863497
1.450000	-0.031073	-24.705575	-87.909900	-178.853685	-87.909900	-178.853685	-0.031065	-24.701740
1.500000	-0.032160	-25.542912	-86.539190	-176.494213	-86.539190	-176.494213	-0.032152	-25.538958
1.550000	-0.033243	-26.379203	-85.240625	-174.872606	-85.240625	-174.872606	-0.033234	-26.375130
1.600000	-0.034322	-27.214426	-84.012794	-173.817064	-84.012794	-173.817064	-0.034313	-27.210236
1.650000	-0.035398	-28.048561	-82.851498	-173.200361	-82.851498	-173.200361	-0.035390	-28.044254
1.700000	-0.036472	-28.881190	-81.725054	-173.015359	-81.725054	-173.015359	-0.036463	-28.876768
1.750000	-0.037544	-29.713233	-80.692982	-172.984293	-80.692982	-172.984293	-0.037535	-29.708697
1.800000	-0.038616	-30.543865	-79.696006	-173.201617	-79.696006	-173.201617	-0.038607	-30.539215
1.850000	-0.039686	-31.373488	-78.754028	-173.596361	-78.754028	-173.596361	-0.039677	-31.368725
1.900000	-0.040756	-32.201856	-77.851087	-174.132660	-77.851087	-174.132660	-0.040747	-32.196983
1.950000	-0.041827	-33.028971	-76.985100	-174.810515	-76.985100	-174.810515	-0.041817	-33.023987
2.000000	-0.042897	-33.855004	-76.160048	-175.570258	-76.160048	-175.570258	-0.042888	-33.849911
2.050000	-0.043969	-34.679523	-75.358547	-176.444643	-75.358547	-176.444643	-0.043960	-34.674323
2.100000	-0.045042	-35.503377	-74.605435	-177.356122	-74.605435	-177.356122	-0.045032	-35.498069
2.150000	-0.046116	-36.325502	-73.866222	-178.359345	-73.866222	-178.359345	-0.046107	-36.320089
2.200000	-0.047193	-37.146320	-73.152821	-179.418218	-73.152821	-179.418218	-0.047183	-37.140803
2.250000	-0.048272	-37.965813	-72.463433	179.474469	-72.463433	179.474469	-0.048262	-37.960194
2.300000	-0.049353	-38.783963	-71.796446	178.324768	-71.796446	178.324768	-0.049343	-38.778243
2.350000	-0.050438	-39.600754	-71.150410	177.137789	-71.150410	177.137789	-0.050428	-39.594935
2.400000	-0.051526	-40.416170	-70.524014	175.917877	-70.524014	175.917877	-0.051516	-40.410252
2.450000	-0.052618	-41.230193	-69.916075	174.668752	-69.916075	174.668752	-0.052608	-41.224179
2.500000	-0.053714	-42.042809	-69.325515	173.393614	-69.325515	173.393614	-0.053703	-42.036699
2.550000	-0.054815	-42.853939	-68.750423	172.094335	-68.750423	172.094335	-0.054804	-42.847736
2.600000	-0.055921	-43.663630	-68.190930	170.774409	-68.190930	170.774409	-0.055909	-43.657335
2.650000	-0.057031	-44.471867	-67.646207	169.435905	-67.646207	169.435905	-0.057020	-44.465482
2.700000	-0.058148	-45.278638	-67.115491	168.080640	-67.115491	168.080640	-0.058136	-45.272164
2.750000	-0.059270	-46.083927	-66.598080	166.710221	-66.598080	166.710221	-0.059259	-46.077366
2.800000	-0.060399	-46.887724	-66.093326	165.326070	-66.093326	165.326070	-0.060387	-46.881077
2.850000	-0.061535	-47.690014	-65.600632	163.929451	-65.600632	163.929451	-0.061523	-47.683284
2.900000	-0.062678	-48.490786	-65.119442	162.521492	-65.119442	162.521492	-0.062666	-48.483974
2.950000	-0.063829	-49.290029	-64.649242	161.103204	-64.649242	161.103204	-0.063816	-49.283136
3.000000	-0.064987	-50.087731	-64.189554	159.675492	-64.189554	159.675492	-0.064974	-50.080759
3.050000	-0.066154	-50.883882	-63.739931	158.239175	-63.739931	158.239175	-0.066141	-50.876833
3.100000	-0.067330	-51.678471	-63.299956	156.794989	-63.299956	156.794989	-0.067316	-51.671346
3.150000	-0.068515	-52.471489	-62.869239	155.343601	-62.869239	155.343601	-0.068501	-52.464291
3.200000	-0.069710	-53.262927	-62.447415	153.885618	-62.447415	153.885618	-0.069696	-53.255656
3.250000	-0.070915	-54.052776	-62.034142	152.421590	-62.034142	152.421590	-0.070900	-54.045434
3.300000	-0.072130	-54.841027	-61.629098	150.952021	-61.629098	150.952021	-0.072115	-54.833617
3.350000	-0.073358	-55.627391	-61.230206	149.476609	-61.230206	149.476609	-0.073343	-55.619914
3.400000	-0.074598	-56.412072	-60.838685	147.996345	-60.838685	147.996345	-0.074583	-56.404531
3.450000	-0.075844	-57.195906	-60.459165	146.513992	-60.459165	146.513992	-0.075829	-57.188300
3.500000	-0.077110	-57.977198	-60.081483	145.025373	-60.081483	145.025373	-0.077094	-57.969530
3.550000	-0.078379	-58.757920	-59.716526	143.535594	-59.716526	143.535594	-0.078363	-58.750191
3.600000	-0.079672	-59.535795	-59.351824	142.040013	-59.351824	142.040013	-0.079656	-59.528009
3.650000	-0.080967	-60.313385	-59.000423	140.543950	-59.000423	140.543950	-0.080950	-60.305541
3.700000	-0.082288	-61.087824	-58.647925	139.042589	-58.647925	139.042589	-0.082271	-61.079926
3.750000	-0.083609	-61.862264	-58.309177	137.541228	-58.309177	137.541228	-0.083592	-61.854311
3.800000	-0.084961	-62.633250	-57.968181	136.035097	-57.968181	136.035097	-0.084944	-62.625247
3.850000	-0.086314	-63.404236	-57.640069	134.528966	-57.640069	134.528966	-0.086296	-63.396182
3.900000	-0.087696	-64.172046	-57.311141	133.019259	-57.311141	133.019259	-0.087678	-64.163944
3.950000	-0.089081	-64.939567	-56.993099	131.509227	-56.993099	131.509227	-0.089063	-64.931417
4.000000	-0.090494	-65.704193	-56.675487	129.996570	-56.675487	129.996570	-0.090477	-65.695999
4.050000	-0.091914	-66.468240	-56.366997	128.483388	-56.366997	128.483388	-0.091896	-66.460002
4.100000	-0.093361	-67.229679	-56.060020	126.968337	-56.060020	126.968337	-0.093343	-67.221400
4.150000	-0.094817	-67.990249	-55.760605	125.452662	-55.760605	125.452662	-0.094799	-67.981928
4.200000	-0.096299	-68.748500	-55.463645	123.935707	-55.463645	123.935707	-0.096280	-68.740141
4.250000	-0.097793	-69.505592	-55.172867	122.418114	-55.172867	122.418114	-0.097775	-69.497196
4.300000	-0.099311	-70.260658	-54.885358	120.899696	-54.885358	120.899696	-0.099293	-70.252227
4.350000	-0.100846	-71.014277	-54.602811	119.380690	-54.602811	119.380690	-0.100827	-71.005811
4.400000	-0.102402	-71.766163	-54.324237	117.861202	-54.324237	117.861202	-0.102383	-71.757665
4.450000	-0.103979	-72.516317	-54.049545	116.341232	-54.049545	116.341232	-0.103960	-72.507788
4.500000	-0.105574	-73.265032	-53.779432	114.821027	-53.779432	114.821027	-0.105555	-73.256474
4.550000	-0.107195	-74.011733	-53.512247	113.300494	-53.512247	113.300494	-0.107176	-74.003147
4.600000	-0.108832	-74.757289	-53.250158	111.779892	-53.250158	111.779892	-0.108812	-74.748676
4.650000	-0.110498	-75.500554	-52.990156	110.259152	-52.990156	110.259152	-0.110479	-75.491916
4.700000	-0.112177	-76.242964	-52.735688	108.738442	-52.735688	108.738442	-0.112158	-76.234303
4.750000	-0.113892	-76.982812	-52.482567	107.217819	-52.482567	107.217819	-0.113873	-76.974129
4.800000	-0.115615	-77.722095	-52.235349	105.697263	-52.235349	105.697263	-0.115596	-77.713391
4.850000	-0.117379	-78.458550	-51.988826	104.177046	-51.988826	104.177046	-0.117360	-78.449827
4.900000	-0.119148	-79.194725	-51.748514	102.656885	-51.748514	102.656885	-0.119128	-79.185984
4.950000	-0.120964	-79.927815	-51.508324	101.137338	-51.508324	101.137338	-0.120944	-79.919058
5.000000	-0.122780	-80.660905	-51.274598	99.617791	-51.274598	99.617791	-0.122760	-80.652132
5.050000	-0.124649	-81.390660	-51.040493	98.099154	-51.040493	98.099154	-0.124629	-81.381874
5.100000	-0.126518	-82.120416	-50.812533	96.580517	-50.812533	96.580517	-0.126498	-82.111617
5.150000	-0.128438	-82.847146	-50.584803	95.062914	-50.584803	95.062914	-0.128417	-82.838337
5.200000	-0.130362	-83.573602	-50.362395	93.545405	-50.362395	93.545405	-0.130342	-83.564783
5.250000	-0.132334	-84.297340	-50.140757	92.029003	-50.140757	92.029003	-0.132313	-84.288512
5.300000	-0.134315	-85.020533	-49.923701	90.512822	-49.923701	90.512822	-0.134294	-85.011698
5.350000	-0.136340	-85.741312	-49.707890	88.997775	-49.707890	88.997775	-0.136320	-85.732471
5.400000	-0.138380	-86.461285	-49.495994	87.483107	-49.495994	87.483107	-0.138360	-86.452439
5.450000	-0.140461	-87.179141	-49.285764	85.969559	-49.285764	85.969559	-0.140440	-87.170292
5.500000	-0.142562	-87.895939	-49.078850	84.456571	-49.078850	84.456571	-0.142541	-87.887087
5.550000	-0.144699	-88.610912	-48.873967	82.944654	-48.873967	82.944654	-0.144677	-88.602058
5.600000	-0.146862	-89.324581	-48.671865	81.433502	-48.671865	81.433502	-0.146840	-89.315727
5.650000	-0.149057	-90.036712	-48.472114	79.923339	-48.472114	79.923339	-0.149035	-90.027859
5.700000	-0.151284	-90.747303	-48.274660	78.414165	-48.274660	78.414165	-0.151263	-90.738453
5.750000	-0.153539	-91.456636	-48.079837	76.905870	-48.079837	76.905870	-0.153517	-91.447788
5.800000	-0.155833	-92.164204	-47.886879	75.398805	-47.886879	75.398805	-0.155810	-92.155361
5.850000	-0.158149	-92.870784	-47.696791	73.892483	-47.696791	73.892483	-0.158126	-92.861945
5.900000	-0.160510	-93.575385	-47.508183	72.387647	-47.508183	72.387647	-0.160487	-93.566553
5.950000	-0.162888	-94.279260	-47.322649	70.883396	-47.322649	70.883396	-0.162865	-94.270435
6.000000	-0.165319	-94.980955	-47.138252	69.380899	-47.138252	69.380899	-0.165296	-94.972138
6.050000	-0.167762	-95.682176	-46.957102	67.878809	-46.957102	67.878809	-0.167738	-95.673367
6.100000	-0.170263	-96.381026	-46.776783	66.378750	-46.776783	66.378750	-0.170240	-96.372227
6.150000	-0.172772	-97.079644	-46.599855	64.878903	-46.599855	64.878903	-0.172748	-97.070856
6.200000	-0.175347	-97.775715	-46.423488	63.381375	-46.423488	63.381375	-0.175322	-97.766938
6.250000	-0.177922	-98.471786	-46.250631	61.883846	-46.250631	61.883846	-0.177897	-98.463021
6.300000	-0.180571	-99.165144	-46.078095	60.388928	-46.078095	60.388928	-0.180546	-99.156393
6.350000	-0.183222	-99.858503	-45.908920	58.894011	-45.908920	58.894011	-0.183196	-99.849765
6.400000	-0.185941	-100.549441	-45.740344	57.401554	-45.740344	57.401554	-0.185915	-100.540717
6.450000	-0.188668	-101.240158	-45.574743	55.909320	-45.574743	55.909320	-0.188642	-101.231449
6.500000	-0.191459	-101.928735	-45.409989	54.419376	-45.409989	54.419376	-0.191433	-101.920042
6.550000	-0.194264	-102.616883	-45.247859	52.929890	-45.247859	52.929890	-0.194237	-102.608207
6.600000	-0.197128	-103.303162	-45.086793	51.442506	-45.086793	51.442506	-0.197101	-103.294503
6.650000	-0.200013	-103.988817	-44.928036	49.955824	-44.928036	49.955824	-0.199985	-103.980175
6.700000	-0.202952	-104.672862	-44.770534	48.471041	-44.770534	48.471041	-0.202923	-104.664238
6.750000	-0.205918	-105.356101	-44.615055	46.987209	-44.615055	46.987209	-0.205889	-105.347496
6.800000	-0.208932	-106.037977	-44.460999	45.505062	-44.460999	45.505062	-0.208903	-106.029392
6.850000	-0.211982	-106.718881	-44.308707	44.024119	-44.308707	44.024119	-0.211951	-106.710315
6.900000	-0.215073	-107.398657	-44.157984	42.544636	-44.157984	42.544636	-0.215042	-107.390111
6.950000	-0.218207	-108.077307	-44.008794	41.066612	-44.008794	41.066612	-0.218176	-108.068781
7.000000	-0.221377	-108.755052	-43.861296	39.589815	-43.861296	39.589815	-0.221346	-108.746547
7.050000	-0.224598	-109.431532	-43.715124	38.114734	-43.715124	38.114734	-0.224565	-109.423048
7.100000	-0.227848	-110.107318	-43.570751	36.640638	-43.570751	36.640638	-0.227815	-110.098855
7.150000	-0.231156	-110.781716	-43.427518	35.168513	-43.427518	35.168513	-0.231123	-110.773274
7.200000	-0.234488	-111.455615	-43.286173	33.697129	-43.286173	33.697129	-0.234453	-111.447195
7.250000	-0.237885	-112.128018	-43.145804	32.227967	-43.145804	32.227967	-0.237850	-112.119620
7.300000	-0.241299	-112.800104	-43.007394	30.759299	-43.007394	30.759299	-0.241263	-112.791728
7.350000	-0.244788	-113.470604	-42.869817	29.293099	-42.869817	29.293099	-0.244752	-113.462249
7.400000	-0.248286	-114.140953	-42.734257	27.827144	-42.734257	27.827144	-0.248249	-114.132620
7.450000	-0.251867	-114.809643	-42.599401	26.363897	-42.599401	26.363897	-0.251829	-114.801332
7.500000	-0.255450	-115.478333	-42.466608	24.900649	-42.466608	24.900649	-0.255411	-115.470043
7.550000	-0.259125	-116.145307	-42.334410	23.440338	-42.334410	23.440338	-0.259085	-116.137039
7.600000	-0.262801	-116.812282	-42.204194	21.980027	-42.204194	21.980027	-0.262761	-116.804035
7.650000	-0.266564	-117.477773	-42.074701	20.522386	-42.074701	20.522386	-0.266524	-117.469547
7.700000	-0.270336	-118.143129	-41.947004	19.064988	-41.947004	19.064988	-0.270295	-118.134923
7.750000	-0.274188	-118.807218	-41.820143	17.609991	-41.820143	17.609991	-0.274146	-118.799034
7.800000	-0.278057	-119.471055	-41.694909	16.155475	-41.694909	16.155475	-0.278014	-119.462890
7.850000	-0.281998	-120.133828	-41.570609	14.703093	-41.570609	14.703093	-0.281955	-120.125682
7.900000	-0.285966	-120.796246	-41.447785	13.251423	-41.447785	13.251423	-0.285921	-120.788120
7.950000	-0.289998	-121.457787	-41.325980	11.801620	-41.325980	11.801620	-0.289953	-121.449679
8.000000	-0.294065	-122.118890	-41.205517	10.352752	-41.205517	10.352752	-0.294019	-122.110800
8.050000	-0.298189	-122.779287	-41.086144	8.905489	-41.086144	8.905489	-0.298143	-122.771213
8.100000	-0.302357	-123.439179	-40.967995	7.459374	-40.967995	7.459374	-0.302310	-123.431122
8.150000	-0.306575	-124.098520	-40.850995	6.014608	-40.850995	6.014608	-0.306527	-124.090478
8.200000	-0.310844	-124.757309	-40.735119	4.571191	-40.735119	4.571191	-0.310795	-124.749281
8.250000	-0.315156	-125.415684	-40.620436	3.128874	-40.620436	3.128874	-0.315107	-125.407669
8.300000	-0.319528	-126.073478	-40.506791	1.688097	-40.506791	1.688097	-0.319478	-126.065476
8.350000	-0.323935	-126.730978	-40.394375	0.248179	-40.394375	0.248179	-0.323885	-126.722987
8.400000	-0.328411	-127.387889	-40.282924	-1.190022	-40.282924	-1.190022	-0.328361	-127.379908
8.450000	-0.332914	-128.044608	-40.172725	-2.627595	-40.172725	-2.627595	-0.332864	-128.036635
8.500000	-0.337495	-128.700748	-40.063435	-4.063286	-40.063435	-4.063286	-0.337444	-128.692783
8.550000	-0.342096	-129.356780	-39.955409	-5.498571	-39.955409	-5.498571	-0.342044	-129.348820
8.600000	-0.346783	-130.012265	-39.848249	-6.931822	-39.848249	-6.931822	-0.346731	-130.004309
8.650000	-0.351481	-130.667705	-39.742354	-8.364875	-39.742354	-8.364875	-0.351429	-130.659752
8.700000	-0.356275	-131.322652	-39.637296	-9.795758	-39.637296	-9.795758	-0.356222	-131.314699
8.750000	-0.361071	-131.977598	-39.533493	-11.226641	-39.533493	-11.226641	-0.361019	-131.969646
8.800000	-0.365973	-132.632126	-39.430514	-12.655228	-39.430514	-12.655228	-0.365920	-132.624169
8.850000	-0.370877	-133.286653	-39.328741	-14.083815	-39.328741	-14.083815	-0.370824	-133.278693
8.900000	-0.375879	-133.940908	-39.227846	-15.510364	-39.227846	-15.510364	-0.375826	-133.932939
8.950000	-0.380891	-134.595137	-39.128082	-16.936728	-39.128082	-16.936728	-0.380839	-134.587160
9.000000	-0.385993	-135.249222	-39.029242	-18.361301	-39.029242	-18.361301	-0.385941	-135.241231
9.050000	-0.391115	-135.903277	-38.931472	-19.785515	-38.931472	-19.785515	-0.391063	-135.895273
9.100000	-0.396318	-136.557295	-38.834658	-21.208169	-38.834658	-21.208169	-0.396266	-136.549274
9.150000	-0.401549	-137.211302	-38.738868	-22.630303	-38.738868	-22.630303	-0.401498	-137.203261
9.200000	-0.406853	-137.865361	-38.644056	-24.051096	-38.644056	-24.051096	-0.406802	-137.857297
9.250000	-0.412195	-138.519447	-38.550235	-25.471219	-38.550235	-25.471219	-0.412144	-138.511358
9.300000	-0.417600	-139.173654	-38.457404	-26.890205	-38.457404	-26.890205	-0.417551	-139.165536
9.350000	-0.423052	-139.827949	-38.365546	-28.308380	-38.365546	-28.308380	-0.423003	-139.819799
9.400000	-0.428559	-140.482415	-38.274677	-29.725610	-38.274677	-29.725610	-0.428512	-140.474230
9.450000	-0.434121	-141.137052	-38.184777	-31.141895	-38.184777	-31.141895	-0.434075	-141.128828
9.500000	-0.439730	-141.791888	-38.095854	-32.557415	-38.095854	-32.557415	-0.439686	-141.783621
9.550000	-0.445403	-142.447001	-38.007911	-33.971864	-38.007911	-33.971864	-0.445360	-142.438688
9.600000	-0.451114	-143.102320	-37.920921	-35.385716	-37.920921	-35.385716	-0.451073	-143.093957
9.650000	-0.456898	-143.758047	-37.834937	-36.798374	-37.834937	-36.798374	-0.456858	-143.749629
9.700000	-0.462711	-144.413964	-37.749869	-38.210592	-37.749869	-38.210592	-0.462673	-144.405488
9.750000	-0.468605	-145.070446	-37.665848	-39.621495	-37.665848	-39.621495	-0.468569	-145.061905
9.800000	-0.474520	-145.727077	-37.582695	-41.032109	-37.582695	-41.032109	-0.474486	-145.718470
9.850000	-0.480524	-146.384455	-37.500644	-42.441282	-37.500644	-42.441282	-0.480493	-146.375774
9.900000	-0.486540	-147.041921	-37.419399	-43.850312	-37.419399	-43.850312	-0.486512	-147.033163
9.950000	-0.492653	-147.700341	-37.339329	-45.257770	-37.339329	-45.257770	-0.492628	-147.691498
10.000000	-0.498771	-148.358761	-37.259990	-46.665229	-37.259990	-46.665229	-0.498748	-148.349832
