! freq	dB(S11)	phase(S11)	dB(S12)	phase(S12)	
!     	dB(S21)	phase(S21)	dB(S22)	phase(S22)	
!S-par simulation data
#  GHz  S  DB  R 50
0.000000	-0.000000	0.000000	-359.209826	0.000000	-359.209826	0.000000	-0.000000	0.000000
0.050000	-0.000102	-0.883529	-115.039919	85.034263	-115.039919	85.034263	-0.000097	-0.778221
0.100000	-0.000406	-1.766825	-109.548342	82.768176	-109.548342	82.768176	-0.000385	-1.556211
0.150000	-0.000901	-2.649667	-106.468046	82.141972	-106.468046	82.141972	-0.000851	-2.333758
0.200000	-0.001569	-3.531869	-104.314745	82.015224	-104.314745	82.015224	-0.001477	-3.110684
0.250000	-0.002402	-4.413213	-102.682917	81.981876	-102.682917	81.981876	-0.002253	-3.886792
0.300000	-0.003363	-5.293646	-101.394532	81.944581	-101.394532	81.944581	-0.003140	-4.662044
0.350000	-0.004436	-6.173037	-100.365955	81.912118	-100.365955	81.912118	-0.004123	-5.436337
0.400000	-0.005599	-7.051321	-99.545642	81.918703	-99.545642	81.918703	-0.005180	-6.209629
0.450000	-0.006831	-7.928461	-98.901296	82.009637	-98.901296	82.009637	-0.006290	-6.981910
0.500000	-0.008114	-8.804443	-98.412216	82.237900	-98.412216	82.237900	-0.007436	-7.753186
0.550000	-0.009429	-9.679269	-98.065353	82.666719	-98.065353	82.666719	-0.008602	-8.523482
0.600000	-0.010764	-10.552956	-97.853010	83.375175	-97.853010	83.375175	-0.009779	-9.292828
0.650000	-0.012107	-11.425527	-97.771263	84.466753	-97.771263	84.466753	-0.010955	-10.061263
0.700000	-0.013448	-12.297010	-97.818461	86.081822	-97.818461	86.081822	-0.012125	-10.828820
0.750000	-0.014782	-13.167434	-97.993077	88.415598	-97.993077	88.415598	-0.013284	-11.595536
0.800000	-0.016102	-14.036825	-98.289678	91.742301	-98.289678	91.742301	-0.014429	-12.361438
0.850000	-0.017406	-14.905207	-98.690667	96.440822	-98.690667	96.440822	-0.015559	-13.126554
0.900000	-0.018692	-15.772599	-99.150134	102.997791	-99.150134	102.997791	-0.016671	-13.890902
0.950000	-0.019959	-16.639018	-99.567532	111.916358	-99.567532	111.916358	-0.017767	-14.654497
1.000000	-0.021205	-17.504472	-99.764470	123.408558	-99.764470	123.408558	-0.018848	-15.417350
1.050000	-0.022433	-18.368969	-99.516365	136.870133	-99.516365	136.870133	-0.019913	-16.179464
1.100000	-0.023642	-19.232509	-98.687671	150.635160	-98.687671	150.635160	-0.020964	-16.940842
1.150000	-0.024834	-20.095091	-97.356628	162.773849	-97.356628	162.773849	-0.022002	-17.701481
1.200000	-0.026010	-20.956708	-95.742007	172.296774	-95.742007	172.296774	-0.023029	-18.461375
1.250000	-0.027171	-21.817352	-94.041030	179.273527	-94.041030	179.273527	-0.024045	-19.220516
1.300000	-0.028318	-22.676967	-92.357935	-175.846340	-92.357935	-175.846340	-0.025052	-19.978861
1.350000	-0.029454	-23.535582	-90.756750	-172.434942	-90.756750	-172.434942	-0.026052	-20.736431
1.400000	-0.030579	-24.393180	-89.251198	-170.095981	-89.251198	-170.095981	-0.027044	-21.493211
1.450000	-0.031696	-25.249744	-87.840461	-168.544645	-87.840461	-168.544645	-0.028031	-22.249188
1.500000	-0.032804	-26.105255	-86.518042	-167.579847	-86.518042	-167.579847	-0.029013	-23.004345
1.550000	-0.033907	-26.959694	-85.275757	-167.059268	-85.275757	-167.059268	-0.029991	-23.758668
1.600000	-0.035003	-27.813040	-84.105431	-166.881009	-84.105431	-166.881009	-0.030966	-24.512140
1.650000	-0.036096	-28.665273	-82.999543	-166.970978	-82.999543	-166.970978	-0.031938	-25.264744
1.700000	-0.037185	-29.516371	-81.951416	-167.274401	-81.951416	-167.274401	-0.032909	-26.016462
1.750000	-0.038271	-30.366313	-80.955218	-167.750112	-80.955218	-167.750112	-0.033878	-26.767280
1.800000	-0.039356	-31.215079	-80.005884	-168.366684	-80.005884	-168.366684	-0.034846	-27.517178
1.850000	-0.040439	-32.062645	-79.099021	-169.099765	-79.099021	-169.099765	-0.035814	-28.266141
1.900000	-0.041523	-32.908991	-78.230814	-169.930229	-78.230814	-169.930229	-0.036782	-29.014151
1.950000	-0.042606	-33.754097	-77.397935	-170.842864	-77.397935	-170.842864	-0.037750	-29.761191
2.000000	-0.043690	-34.597940	-76.597474	-171.825430	-76.597474	-171.825430	-0.038719	-30.507246
2.050000	-0.044776	-35.440502	-75.826873	-172.867972	-75.826873	-172.867972	-0.039690	-31.252298
2.100000	-0.045863	-36.281761	-75.083873	-173.962313	-75.083873	-173.962313	-0.040662	-31.996332
2.150000	-0.046953	-37.121699	-74.366472	-175.101679	-74.366472	-175.101679	-0.041636	-32.739332
2.200000	-0.048045	-37.960295	-73.672887	-176.280408	-73.672887	-176.280408	-0.042612	-33.481282
2.250000	-0.049140	-38.797531	-73.001522	-177.493731	-73.001522	-177.493731	-0.043591	-34.222167
2.300000	-0.050239	-39.633390	-72.350946	-178.737604	-72.350946	-178.737604	-0.044572	-34.961972
2.350000	-0.051342	-40.467853	-71.719868	179.991425	-71.719868	179.991425	-0.045557	-35.700682
2.400000	-0.052449	-41.300902	-71.107120	178.696324	-71.107120	178.696324	-0.046545	-36.438283
2.450000	-0.053561	-42.132522	-70.511643	177.379657	-70.511643	177.379657	-0.047537	-37.174760
2.500000	-0.054678	-42.962696	-69.932471	176.043651	-69.932471	176.043651	-0.048532	-37.910099
2.550000	-0.055800	-43.791344	-69.367807	174.689574	-69.367807	174.689574	-0.049532	-38.644237
2.600000	-0.056928	-44.618514	-68.817851	173.319943	-68.817851	173.319943	-0.050537	-39.377210
2.650000	-0.058062	-45.444192	-68.281850	171.936238	-68.281850	171.936238	-0.051547	-40.109005
2.700000	-0.059202	-46.268364	-67.759114	170.539770	-67.759114	170.539770	-0.052562	-40.839609
2.750000	-0.060349	-47.091016	-67.249003	169.131706	-67.249003	169.131706	-0.053582	-41.569010
2.800000	-0.061503	-47.912136	-66.750927	167.713088	-66.750927	167.713088	-0.054608	-42.297197
2.850000	-0.062664	-48.731711	-66.264339	166.284847	-66.264339	166.284847	-0.055640	-43.024157
2.900000	-0.063833	-49.549730	-65.788730	164.847823	-65.788730	164.847823	-0.056679	-43.749880
2.950000	-0.065010	-50.366182	-65.323626	163.402772	-65.323626	163.402772	-0.057724	-44.474354
3.000000	-0.066195	-51.181056	-64.868588	161.950377	-64.868588	161.950377	-0.058777	-45.197569
3.050000	-0.067390	-51.994342	-64.423201	160.491257	-64.423201	160.491257	-0.059837	-45.919515
3.100000	-0.068593	-52.806031	-63.987080	159.025975	-63.987080	159.025975	-0.060904	-46.640181
3.150000	-0.069806	-53.616114	-63.559862	157.555045	-63.559862	157.555045	-0.061980	-47.359559
3.200000	-0.071028	-54.424582	-63.141209	156.078935	-63.141209	156.078935	-0.063064	-48.077638
3.250000	-0.072261	-55.231428	-62.730799	154.598074	-62.730799	154.598074	-0.064157	-48.794410
3.300000	-0.073505	-56.036645	-62.328333	153.112855	-62.328333	153.112855	-0.065260	-49.509867
3.350000	-0.074762	-56.839939	-61.931741	151.623043	-61.931741	151.623043	-0.066373	-50.223766
3.400000	-0.076030	-57.641519	-61.542271	150.129420	-61.542271	150.129420	-0.067496	-50.936275
3.450000	-0.077305	-58.442236	-61.164592	148.634159	-61.164592	148.634159	-0.068626	-51.648083
3.500000	-0.078599	-59.240369	-60.788498	147.133987	-60.788498	147.133987	-0.069771	-52.357784
3.550000	-0.079898	-60.037923	-60.424971	145.632911	-60.424971	145.632911	-0.070921	-53.067013
3.600000	-0.081219	-60.832588	-60.061446	144.127312	-60.061446	144.127312	-0.072090	-53.773877
3.650000	-0.082543	-61.626963	-59.711114	142.621342	-59.711114	142.621342	-0.073261	-54.480502
3.700000	-0.083894	-62.418147	-59.359427	141.111278	-59.359427	141.111278	-0.074455	-55.184502
3.750000	-0.085244	-63.209331	-59.021428	139.601214	-59.021428	139.601214	-0.075649	-55.888501
3.800000	-0.086626	-63.997023	-58.680914	138.087512	-58.680914	138.087512	-0.076870	-56.589612
3.850000	-0.088007	-64.784716	-58.353247	136.573810	-58.353247	136.573810	-0.078090	-57.290723
3.900000	-0.089419	-65.569203	-58.024522	135.057431	-58.024522	135.057431	-0.079337	-57.989168
3.950000	-0.090833	-66.353399	-57.706649	133.540809	-57.706649	133.540809	-0.080587	-58.687370
4.000000	-0.092277	-67.134681	-57.388991	132.022273	-57.388991	132.022273	-0.081861	-59.383132
4.050000	-0.093726	-67.915379	-57.080417	130.503355	-57.080417	130.503355	-0.083140	-60.078407
4.100000	-0.095203	-68.693458	-56.773168	128.983126	-56.773168	128.983126	-0.084443	-60.771476
4.150000	-0.096689	-69.470664	-56.473437	127.462460	-56.473437	127.462460	-0.085754	-61.463809
4.200000	-0.098201	-70.245546	-56.176001	125.940948	-56.176001	125.940948	-0.087088	-62.154173
4.250000	-0.099727	-71.019267	-55.884690	124.419014	-55.884690	124.419014	-0.088432	-62.843553
4.300000	-0.101275	-71.790963	-55.596518	122.896588	-55.596518	122.896588	-0.089797	-63.531205
4.350000	-0.102841	-72.561211	-55.313237	121.373811	-55.313237	121.373811	-0.091177	-64.217623
4.400000	-0.104429	-73.329733	-55.033829	119.850800	-55.033829	119.850800	-0.092575	-64.902556
4.450000	-0.106038	-74.096526	-54.758214	118.327556	-54.758214	118.327556	-0.093992	-65.586006
4.500000	-0.107666	-74.861890	-54.487108	116.804256	-54.487108	116.804256	-0.095424	-66.268217
4.550000	-0.109319	-75.625250	-54.218822	115.280879	-54.218822	115.280879	-0.096879	-66.948696
4.600000	-0.110989	-76.387474	-53.955593	113.757558	-53.955593	113.757558	-0.098348	-67.628185
4.650000	-0.112690	-77.147426	-53.694321	112.234347	-53.694321	112.234347	-0.099843	-68.305692
4.700000	-0.114403	-77.906534	-53.438577	110.711244	-53.438577	110.711244	-0.101349	-68.982458
4.750000	-0.116152	-78.663108	-53.184024	109.188466	-53.184024	109.188466	-0.102886	-69.656998
4.800000	-0.117911	-79.419124	-52.935401	107.665800	-52.935401	107.665800	-0.104431	-70.331044
4.850000	-0.119711	-80.172353	-52.687292	106.143695	-52.687292	106.143695	-0.106012	-71.002621
4.900000	-0.121516	-80.925307	-52.445453	104.621664	-52.445453	104.621664	-0.107597	-71.673953
4.950000	-0.123370	-81.675229	-52.203530	103.100448	-52.203530	103.100448	-0.109224	-72.342577
5.000000	-0.125223	-82.425152	-51.968163	101.579232	-51.968163	101.579232	-0.110851	-73.011200
5.050000	-0.127132	-83.171809	-51.732184	100.059101	-51.732184	100.059101	-0.112524	-73.676881
5.100000	-0.129040	-83.918466	-51.502446	98.538970	-51.502446	98.538970	-0.114198	-74.342562
5.150000	-0.131000	-84.662172	-51.272733	97.019996	-51.272733	97.019996	-0.115917	-75.005559
5.200000	-0.132966	-85.405609	-51.048417	95.501128	-51.048417	95.501128	-0.117639	-75.668311
5.250000	-0.134980	-86.146404	-50.824692	93.983445	-50.824692	93.983445	-0.119404	-76.328637
5.300000	-0.137004	-86.886671	-50.605601	92.466000	-50.605601	92.466000	-0.121177	-76.988477
5.350000	-0.139073	-87.624600	-50.387606	90.949734	-50.387606	90.949734	-0.122990	-77.646147
5.400000	-0.141158	-88.361750	-50.173553	89.433860	-50.173553	89.433860	-0.124816	-78.303094
5.450000	-0.143284	-89.096859	-49.961046	87.919124	-49.961046	87.919124	-0.126677	-78.958127
5.500000	-0.145431	-89.830947	-49.751856	86.404956	-49.751856	86.404956	-0.128557	-79.612202
5.550000	-0.147616	-90.563286	-49.544610	84.891857	-49.544610	84.891857	-0.130469	-80.264617
5.600000	-0.149828	-91.294374	-49.340117	83.379520	-49.340117	83.379520	-0.132404	-80.915845
5.650000	-0.152072	-92.023994	-49.137918	81.868156	-49.137918	81.868156	-0.134368	-81.565663
5.700000	-0.154350	-92.752146	-48.937965	80.357765	-48.937965	80.357765	-0.136361	-82.214071
5.750000	-0.156656	-93.479101	-48.740614	78.848228	-48.740614	78.848228	-0.138379	-82.861315
5.800000	-0.159002	-94.204383	-48.545051	77.339889	-48.545051	77.339889	-0.140431	-83.506931
5.850000	-0.161371	-94.928733	-48.352360	75.832266	-48.352360	75.832266	-0.142503	-84.151626
5.900000	-0.163787	-95.651216	-48.161045	74.326076	-48.161045	74.326076	-0.144615	-84.794481
5.950000	-0.166221	-96.373018	-47.972837	72.820447	-47.972837	72.820447	-0.146744	-85.436654
6.000000	-0.168708	-97.092777	-47.785636	71.316499	-47.785636	71.316499	-0.148919	-86.076782
6.050000	-0.171208	-97.812094	-47.601744	69.812939	-47.601744	69.812939	-0.151105	-86.716462
6.100000	-0.173768	-98.529205	-47.418528	68.311318	-47.418528	68.311318	-0.153344	-87.353899
6.150000	-0.176336	-99.246103	-47.238794	66.809898	-47.238794	66.809898	-0.155590	-87.991114
6.200000	-0.178971	-99.960648	-47.059441	65.310684	-47.059441	65.310684	-0.157895	-88.625897
6.250000	-0.181607	-100.675192	-46.883716	63.811471	-46.883716	63.811471	-0.160200	-89.260681
6.300000	-0.184319	-101.387254	-46.708109	62.314738	-46.708109	62.314738	-0.162572	-89.892851
6.350000	-0.187032	-102.099316	-46.535982	60.818006	-46.535982	60.818006	-0.164945	-90.525021
6.400000	-0.189816	-102.809182	-46.364280	59.323611	-46.364280	59.323611	-0.167381	-91.154834
6.450000	-0.192608	-103.518848	-46.195646	57.829430	-46.195646	57.829430	-0.169823	-91.784432
6.500000	-0.195465	-104.226593	-46.027713	56.337428	-46.027713	56.337428	-0.172324	-92.411925
6.550000	-0.198337	-104.933954	-45.862473	54.845861	-45.862473	54.845861	-0.174837	-93.038996
6.600000	-0.201269	-105.639655	-45.698180	53.356302	-45.698180	53.356302	-0.177403	-93.664207
6.650000	-0.204221	-106.344804	-45.536238	51.867411	-45.536238	51.867411	-0.179988	-94.288798
6.700000	-0.207229	-107.048542	-45.375463	50.380341	-45.375463	50.380341	-0.182622	-94.911767
6.750000	-0.210266	-107.751575	-45.216727	48.894181	-45.216727	48.894181	-0.185281	-95.533924
6.800000	-0.213351	-108.453432	-45.059352	47.409644	-45.059352	47.409644	-0.187984	-96.154692
6.850000	-0.216472	-109.154449	-44.903735	45.926265	-44.903735	45.926265	-0.190718	-96.774467
6.900000	-0.219636	-109.854509	-44.749650	44.444301	-44.749650	44.444301	-0.193491	-97.393076
6.950000	-0.222843	-110.553612	-44.597066	42.963750	-44.597066	42.963750	-0.196302	-98.010520
7.000000	-0.226087	-111.251962	-44.446166	41.484395	-44.446166	41.484395	-0.199146	-98.627014
7.050000	-0.229382	-111.949258	-44.296534	40.006714	-44.296534	40.006714	-0.202036	-99.242181
7.100000	-0.232707	-112.645987	-44.148717	38.530001	-44.148717	38.530001	-0.204953	-99.856607
7.150000	-0.236091	-113.341583	-44.001959	37.055224	-44.001959	37.055224	-0.207923	-100.469551
7.200000	-0.239498	-114.036782	-43.857129	35.581182	-43.857129	35.581182	-0.210913	-101.081954
7.250000	-0.242973	-114.730791	-43.713169	34.109342	-43.713169	34.109342	-0.213965	-101.692734
7.300000	-0.246464	-115.424554	-43.571234	32.637995	-43.571234	32.637995	-0.217030	-102.303163
7.350000	-0.250030	-116.117090	-43.429999	31.169117	-43.429999	31.169117	-0.220165	-102.911837
7.400000	-0.253606	-116.809513	-43.290872	29.700486	-43.290872	29.700486	-0.223307	-103.520341
7.450000	-0.257267	-117.500695	-43.152291	28.234589	-43.152291	28.234589	-0.226525	-104.126970
7.500000	-0.260928	-118.191876	-43.015887	26.768691	-43.015887	26.768691	-0.229745	-104.733600
7.550000	-0.264683	-118.881823	-42.879894	25.305788	-42.879894	25.305788	-0.233049	-105.338246
7.600000	-0.268440	-119.571771	-42.745997	23.842886	-42.745997	23.842886	-0.236355	-105.942893
7.650000	-0.272284	-120.260701	-42.612661	22.382734	-42.612661	22.382734	-0.239739	-106.545781
7.700000	-0.276137	-120.949538	-42.481209	20.922832	-42.481209	20.922832	-0.243132	-107.148510
7.750000	-0.280070	-121.637557	-42.350452	19.465432	-42.350452	19.465432	-0.246598	-107.749694
7.800000	-0.284020	-122.325412	-42.221385	18.008532	-42.221385	18.008532	-0.250079	-108.350570
7.850000	-0.288044	-123.012628	-42.093132	16.553878	-42.093132	16.553878	-0.253627	-108.950107
7.900000	-0.292093	-123.699630	-41.966392	15.099972	-41.966392	15.099972	-0.257198	-109.549198
7.950000	-0.296209	-124.386154	-41.840572	13.648053	-41.840572	13.648053	-0.260829	-110.147144
8.000000	-0.300358	-125.072438	-41.716104	12.197127	-41.716104	12.197127	-0.264491	-110.744519
8.050000	-0.304567	-125.758382	-41.592648	10.747927	-41.592648	10.747927	-0.268207	-111.340933
8.100000	-0.308817	-126.444084	-41.470397	9.299958	-41.470397	9.299958	-0.271961	-111.936662
8.150000	-0.313119	-127.129565	-41.349240	7.853453	-41.349240	7.853453	-0.275762	-112.531605
8.200000	-0.317473	-127.814825	-41.229156	6.408412	-41.229156	6.408412	-0.279610	-113.125761
8.250000	-0.321869	-128.499961	-41.110235	4.964573	-41.110235	4.964573	-0.283497	-113.719293
8.300000	-0.326326	-129.184922	-40.992266	3.522420	-40.992266	3.522420	-0.287439	-114.311950
8.350000	-0.330819	-129.869833	-40.875522	2.081213	-40.875522	2.081213	-0.291414	-114.904133
8.400000	-0.335381	-130.554643	-40.759622	0.641899	-40.759622	0.641899	-0.295452	-115.495366
8.450000	-0.339970	-131.239453	-40.644997	-0.796718	-40.644997	-0.796718	-0.299515	-116.086264
8.500000	-0.344638	-131.924262	-40.531121	-2.233247	-40.531121	-2.233247	-0.303650	-116.676152
8.550000	-0.349325	-132.609097	-40.418560	-3.669323	-40.418560	-3.669323	-0.307802	-117.265828
8.600000	-0.354099	-133.294059	-40.306664	-5.103134	-40.306664	-5.103134	-0.312034	-117.854449
8.650000	-0.358885	-133.979047	-40.196117	-6.536724	-40.196117	-6.536724	-0.316276	-118.442971
8.700000	-0.363767	-134.664319	-40.086160	-7.967890	-40.086160	-7.967890	-0.320607	-119.030406
8.750000	-0.368652	-135.349592	-39.977577	-9.399056	-39.977577	-9.399056	-0.324940	-119.617841
8.800000	-0.373644	-136.035337	-39.869520	-10.827660	-39.869520	-10.827660	-0.329370	-120.204172
8.850000	-0.378638	-136.721081	-39.762790	-12.256265	-39.762790	-12.256265	-0.333803	-120.790503
8.900000	-0.383730	-137.407410	-39.656661	-13.682605	-39.656661	-13.682605	-0.338325	-121.375899
8.950000	-0.388834	-138.093792	-39.551751	-15.108741	-39.551751	-15.108741	-0.342858	-121.961210
9.000000	-0.394028	-138.780847	-39.447507	-16.532902	-39.447507	-16.532902	-0.347473	-122.545743
9.050000	-0.399243	-139.468035	-39.344383	-17.956669	-39.344383	-17.956669	-0.352107	-123.130121
9.100000	-0.404540	-140.155959	-39.241983	-19.378741	-39.241983	-19.378741	-0.356816	-123.713864
9.150000	-0.409866	-140.844128	-39.140617	-20.800248	-39.140617	-20.800248	-0.361551	-124.297395
9.200000	-0.415266	-141.533068	-39.040024	-22.220328	-39.040024	-22.220328	-0.366354	-124.880422
9.250000	-0.420705	-142.222394	-38.940388	-23.639694	-38.940388	-23.639694	-0.371191	-125.463198
9.300000	-0.426209	-142.912502	-38.841567	-25.057884	-38.841567	-25.057884	-0.376089	-126.045585
9.350000	-0.431761	-143.603167	-38.743636	-26.475234	-38.743636	-26.475234	-0.381029	-126.627695
9.400000	-0.437369	-144.294596	-38.646556	-27.891642	-38.646556	-27.891642	-0.386021	-127.209520
9.450000	-0.443034	-144.986788	-38.550309	-29.307108	-38.550309	-29.307108	-0.391064	-127.791058
9.500000	-0.448748	-145.679695	-38.454940	-30.721847	-38.454940	-30.721847	-0.396151	-128.372399
9.550000	-0.454527	-146.373603	-38.360359	-32.135569	-38.360359	-32.135569	-0.401298	-128.953461
9.600000	-0.460346	-147.068149	-38.266674	-33.548758	-38.266674	-33.548758	-0.406481	-129.534397
9.650000	-0.466240	-147.763970	-38.173744	-34.960881	-38.173744	-34.960881	-0.411731	-130.115081
9.700000	-0.472165	-148.460319	-38.081720	-36.372641	-38.081720	-36.372641	-0.417009	-130.695695
9.750000	-0.478174	-149.158253	-37.990429	-37.783314	-37.990429	-37.783314	-0.422363	-131.276099
9.800000	-0.484205	-149.856574	-37.900046	-39.193772	-37.900046	-39.193772	-0.427737	-131.856474
9.850000	-0.490329	-150.556827	-37.810385	-40.603150	-37.810385	-40.603150	-0.433195	-132.436701
9.900000	-0.496466	-151.257291	-37.721624	-42.012434	-37.721624	-42.012434	-0.438665	-133.016921
9.950000	-0.502706	-151.960074	-37.633588	-43.420674	-37.633588	-43.420674	-0.444227	-133.597074
10.000000	-0.508950	-152.662857	-37.546435	-44.828915	-37.546435	-44.828915	-0.449792	-134.177227
