! freq	dB(S11)	phase(S11)	dB(S12)	phase(S12)	
!     	dB(S21)	phase(S21)	dB(S22)	phase(S22)	
!S-par simulation data
#  GHz  S  DB  R 50
0.000000	0.000000	0.000000	-328.787923	180.000000	-328.787923	180.000000	-0.000000	-0.000000
0.050000	-0.002001	-2.245861	-76.956157	87.640443	-76.956157	87.640443	-0.002009	-2.245785
0.100000	-0.005925	-4.473693	-70.941080	85.473850	-70.941080	85.473850	-0.005920	-4.473421
0.150000	-0.009554	-6.687673	-67.433483	83.271712	-67.433483	83.271712	-0.009514	-6.687323
0.200000	-0.012497	-8.895184	-64.956034	81.064657	-64.956034	81.064657	-0.012426	-8.894890
0.250000	-0.015066	-11.099904	-63.044744	78.861225	-63.044744	78.861225	-0.014975	-11.099701
0.300000	-0.017501	-13.302598	-61.493419	76.665196	-61.493419	76.665196	-0.017398	-13.302457
0.350000	-0.019965	-15.503189	-60.192631	74.479707	-60.192631	74.479707	-0.019859	-15.503032
0.400000	-0.022562	-17.701358	-59.077010	72.307509	-59.077010	72.307509	-0.022461	-17.701075
0.450000	-0.025330	-19.897010	-58.103102	70.149846	-58.103102	70.149846	-0.025243	-19.896477
0.500000	-0.028278	-22.090000	-57.241829	68.008361	-57.241829	68.008361	-0.028219	-22.089094
0.550000	-0.031390	-24.280042	-56.473378	65.885765	-56.473378	65.885765	-0.031382	-24.278670
0.600000	-0.034593	-26.467067	-55.781770	63.782865	-55.781770	63.782865	-0.034663	-26.465231
0.650000	-0.037799	-28.650879	-55.154670	61.699891	-55.154670	61.699891	-0.037972	-28.648689
0.700000	-0.040920	-30.830912	-54.582939	59.637434	-54.582939	59.637434	-0.041206	-30.828576
0.750000	-0.043884	-33.006152	-54.059931	57.596626	-54.059931	57.596626	-0.044270	-33.003917
0.800000	-0.046686	-35.176363	-53.578128	55.574456	-53.578128	55.574456	-0.047144	-35.174390
0.850000	-0.049315	-37.339804	-53.134874	53.573022	-53.134874	53.573022	-0.049803	-37.338156
0.900000	-0.051838	-39.497183	-52.723812	51.587180	-52.723812	51.587180	-0.052325	-39.495816
0.950000	-0.054281	-41.647018	-52.343957	49.618144	-52.343957	49.618144	-0.054741	-41.645822
1.000000	-0.056689	-43.790109	-51.991184	47.662795	-51.991184	47.662795	-0.057109	-43.788972
1.050000	-0.059083	-45.925841	-51.664558	45.722426	-51.664558	45.722426	-0.059457	-45.924660
1.100000	-0.061477	-48.054331	-51.362266	43.798510	-51.362266	43.798510	-0.061804	-48.053028
1.150000	-0.063876	-50.175847	-51.082455	41.893723	-51.082455	41.893723	-0.064158	-50.174373
1.200000	-0.066283	-52.289679	-50.825047	40.014851	-50.825047	40.014851	-0.066524	-52.288003
1.250000	-0.068693	-54.396930	-50.586622	38.162656	-50.586622	38.162656	-0.068896	-54.395042
1.300000	-0.071105	-56.496036	-50.368425	36.348780	-50.368425	36.348780	-0.071274	-56.493934
1.350000	-0.073515	-58.588520	-50.166288	34.569595	-50.166288	34.569595	-0.073652	-58.586213
1.400000	-0.075917	-60.673233	-49.980553	32.833995	-49.980553	32.833995	-0.076027	-60.670734
1.450000	-0.078311	-62.750862	-49.808729	31.139887	-49.808729	31.139887	-0.078395	-62.748187
1.500000	-0.080693	-64.821111	-49.649912	29.490118	-49.649912	29.490118	-0.080754	-64.818276
1.550000	-0.083061	-66.883829	-49.503077	27.886199	-49.503077	27.886199	-0.083101	-66.880855
1.600000	-0.085414	-68.939586	-49.366471	26.324970	-49.366471	26.324970	-0.085436	-68.936488
1.650000	-0.087750	-70.987396	-49.240169	24.812655	-49.240169	24.812655	-0.087756	-70.984194
1.700000	-0.090071	-73.028420	-49.122092	23.342230	-49.122092	23.342230	-0.090062	-73.025130
1.750000	-0.092375	-75.061934	-49.012124	21.918303	-49.012124	21.918303	-0.092353	-75.058572
1.800000	-0.094664	-77.088187	-48.909257	20.539501	-48.909257	20.539501	-0.094630	-77.084767
1.850000	-0.096936	-79.107227	-48.812727	19.205731	-48.812727	19.205731	-0.096894	-79.103763
1.900000	-0.099194	-81.119034	-48.721842	17.917348	-48.721842	17.917348	-0.099144	-81.115538
1.950000	-0.101439	-83.123679	-48.635866	16.674151	-48.635866	16.674151	-0.101381	-83.120162
2.000000	-0.103671	-85.121319	-48.554053	15.475375	-48.554053	15.475375	-0.103609	-85.117791
2.050000	-0.105892	-87.112042	-48.475714	14.320631	-48.475714	14.320631	-0.105826	-87.108512
2.100000	-0.108104	-89.095947	-48.400172	13.209397	-48.400172	13.209397	-0.108036	-89.092424
2.150000	-0.110309	-91.073144	-48.326759	12.140988	-48.326759	12.140988	-0.110238	-91.069635
2.200000	-0.112507	-93.043752	-48.254812	11.114533	-48.254812	11.114533	-0.112436	-93.040263
2.250000	-0.114700	-95.007898	-48.183678	10.128949	-48.183678	10.128949	-0.114630	-95.004437
2.300000	-0.116891	-96.965723	-48.112712	9.182921	-48.112712	9.182921	-0.116821	-96.962293
2.350000	-0.119080	-98.917371	-48.041283	8.274881	-48.041283	8.274881	-0.119013	-98.913978
2.400000	-0.121269	-100.863002	-47.968776	7.402988	-47.968776	7.402988	-0.121205	-100.859650
2.450000	-0.123461	-102.802779	-47.894593	6.565125	-47.894593	6.565125	-0.123399	-102.799473
2.500000	-0.125656	-104.736877	-47.818162	5.758882	-47.818162	5.758882	-0.125598	-104.733621
2.550000	-0.127856	-106.665365	-47.738851	4.982118	-47.738851	4.982118	-0.127803	-106.662162
2.600000	-0.130063	-108.588557	-47.656216	4.231141	-47.656216	4.231141	-0.130014	-108.585411
2.650000	-0.132279	-110.506653	-47.569790	3.502672	-47.569790	3.502672	-0.132235	-110.503567
2.700000	-0.134505	-112.419861	-47.479152	2.793180	-47.479152	2.793180	-0.134466	-112.416839
2.750000	-0.136742	-114.328395	-47.383934	2.098908	-47.383934	2.098908	-0.136708	-114.325441
2.800000	-0.138992	-116.232479	-47.283822	1.415901	-47.283822	1.415901	-0.138963	-116.229596
2.850000	-0.141256	-118.132342	-47.178561	0.740052	-47.178561	0.740052	-0.141233	-118.129533
2.900000	-0.143536	-120.028220	-47.067960	0.067141	-47.067960	0.067141	-0.143518	-120.025489
2.950000	-0.145833	-121.920357	-46.951891	-0.607116	-46.951891	-0.607116	-0.145820	-121.917709
3.000000	-0.148149	-123.809003	-46.830293	-1.287017	-46.830293	-1.287017	-0.148141	-123.806441
3.050000	-0.150484	-125.694414	-46.703169	-1.976825	-46.703169	-1.976825	-0.150481	-125.691942
3.100000	-0.152840	-127.576853	-46.570583	-2.680716	-46.570583	-2.680716	-0.152842	-127.574475
3.150000	-0.155221	-129.456244	-46.431613	-3.405864	-46.431613	-3.405864	-0.155228	-129.453966
3.200000	-0.157622	-131.333565	-46.288468	-4.150689	-46.288468	-4.150689	-0.157634	-131.331390
3.250000	-0.160048	-133.208742	-46.140414	-4.921192	-46.140414	-4.921192	-0.160064	-133.206676
3.300000	-0.162500	-135.082059	-45.987728	-5.720762	-45.987728	-5.720762	-0.162520	-135.080106
3.350000	-0.164975	-136.953913	-45.831327	-6.549417	-45.831327	-6.549417	-0.164999	-136.952078
3.400000	-0.167480	-138.824349	-45.670275	-7.416364	-45.670275	-7.416364	-0.167508	-138.822639
3.450000	-0.170014	-140.693817	-45.505642	-8.320915	-45.505642	-8.320915	-0.170044	-140.692237
3.500000	-0.172576	-142.562621	-45.337828	-9.265269	-45.337828	-9.265269	-0.172610	-142.561177
3.550000	-0.175169	-144.431070	-45.167243	-10.251323	-45.167243	-10.251323	-0.175206	-144.429769
3.600000	-0.177792	-146.299478	-44.994305	-11.280672	-44.994305	-11.280672	-0.177832	-146.298325
3.650000	-0.180447	-148.168162	-44.819436	-12.354626	-44.819436	-12.354626	-0.180489	-148.167164
3.700000	-0.183135	-150.037443	-44.643053	-13.474222	-44.643053	-13.474222	-0.183178	-150.036606
3.750000	-0.185855	-151.907646	-44.465566	-14.640246	-44.465566	-14.640246	-0.185901	-151.906977
3.800000	-0.188609	-153.779136	-44.287289	-15.854281	-44.287289	-15.854281	-0.188657	-153.778642
3.850000	-0.191398	-155.652224	-44.108712	-17.115649	-44.108712	-17.115649	-0.191447	-155.651913
3.900000	-0.194221	-157.527248	-43.930203	-18.424498	-43.930203	-18.424498	-0.194271	-157.527125
3.950000	-0.197080	-159.404545	-43.752117	-19.780813	-43.752117	-19.780813	-0.197131	-159.404619
4.000000	-0.199973	-161.284459	-43.574788	-21.184441	-43.574788	-21.184441	-0.200026	-161.284736
4.050000	-0.202903	-163.167334	-43.398529	-22.635113	-43.398529	-22.635113	-0.202956	-163.167822
4.100000	-0.205869	-165.053517	-43.223634	-24.132464	-43.223634	-24.132464	-0.205923	-165.054225
4.150000	-0.208871	-166.943360	-43.050379	-25.676049	-43.050379	-25.676049	-0.208926	-166.944294
4.200000	-0.211911	-168.837216	-42.879017	-27.265367	-42.879017	-27.265367	-0.211965	-168.838383
4.250000	-0.214986	-170.735438	-42.709785	-28.899872	-42.709785	-28.899872	-0.215042	-170.736846
4.300000	-0.218099	-172.638383	-42.542899	-30.578990	-42.542899	-30.578990	-0.218155	-172.640041
4.350000	-0.221249	-174.546411	-42.378558	-32.302133	-42.378558	-32.302133	-0.221305	-174.548325
4.400000	-0.224436	-176.459945	-42.216944	-34.069174	-42.216944	-34.069174	-0.224492	-176.462123
4.450000	-0.227660	-178.379358	-42.058232	-35.879509	-42.058232	-35.879509	-0.227717	-178.381808
4.500000	-0.230922	179.695045	-41.902577	-37.732098	-41.902577	-37.732098	-0.230978	179.692316
4.550000	-0.234219	177.762902	-41.750116	-39.626401	-41.750116	-39.626401	-0.234276	177.759886
4.600000	-0.237554	175.823847	-41.600973	-41.561907	-41.600973	-41.561907	-0.237611	175.820537
4.650000	-0.240924	173.877517	-41.455261	-43.538145	-41.455261	-43.538145	-0.240981	173.873906
4.700000	-0.244330	171.923547	-41.313082	-45.554684	-41.313082	-45.554684	-0.244387	171.919627
4.750000	-0.247771	169.961573	-41.174527	-47.611141	-41.174527	-47.611141	-0.247829	169.957337
4.800000	-0.251247	167.991230	-41.039679	-49.707185	-41.039679	-49.707185	-0.251305	167.986672
4.850000	-0.254757	166.012157	-40.908614	-51.842534	-40.908614	-51.842534	-0.254815	166.007270
4.900000	-0.258301	164.023993	-40.781397	-54.016964	-40.781397	-54.016964	-0.258360	164.018769
4.950000	-0.261878	162.026377	-40.658089	-56.230308	-40.658089	-56.230308	-0.261937	162.020811
5.000000	-0.265487	160.018952	-40.538745	-58.482458	-40.538745	-58.482458	-0.265547	160.013039
5.050000	-0.269129	158.001030	-40.423496	-60.774594	-40.423496	-60.774594	-0.269189	157.994762
5.100000	-0.272801	155.972743	-40.312268	-63.104892	-40.312268	-63.104892	-0.272861	155.966115
5.150000	-0.276502	153.933758	-40.205092	-65.473428	-40.205092	-65.473428	-0.276563	153.926765
5.200000	-0.280233	151.883277	-40.102120	-67.881926	-40.102120	-67.881926	-0.280295	151.875913
5.250000	-0.283992	149.821224	-40.003312	-70.329650	-40.003312	-70.329650	-0.284054	149.813485
5.300000	-0.287778	147.747468	-39.908642	-72.816203	-39.908642	-72.816203	-0.287840	147.739349
5.350000	-0.291590	145.661239	-39.818245	-75.343352	-39.818245	-75.343352	-0.291653	145.652736
5.400000	-0.295427	143.562028	-39.732191	-77.912057	-39.732191	-77.912057	-0.295490	143.553137
5.450000	-0.299287	141.450146	-39.650322	-80.520766	-39.650322	-80.520766	-0.299351	141.440865
5.500000	-0.303170	139.325304	-39.572643	-83.169970	-39.572643	-83.169970	-0.303234	139.315630
5.550000	-0.307073	137.187218	-39.499152	-85.860213	-39.499152	-85.860213	-0.307138	137.177149
5.600000	-0.310996	135.035614	-39.429842	-88.592094	-39.429842	-88.592094	-0.311062	135.025148
5.650000	-0.314938	132.870228	-39.364702	-91.366268	-39.364702	-91.366268	-0.315004	132.859364
5.700000	-0.318899	130.689404	-39.304080	-94.187736	-39.304080	-94.187736	-0.318965	130.678142
5.750000	-0.322876	128.493994	-39.247658	-97.053918	-39.247658	-97.053918	-0.322942	128.482335
5.800000	-0.326868	126.284031	-39.195332	-99.964841	-39.195332	-99.964841	-0.326934	126.271975
5.850000	-0.330874	124.059299	-39.147060	-102.921371	-39.147060	-102.921371	-0.330939	124.046848
5.900000	-0.334891	121.820364	-39.102598	-105.922023	-39.102598	-105.922023	-0.334957	121.807521
5.950000	-0.338922	119.565073	-39.062368	-108.973898	-39.062368	-108.973898	-0.338987	119.551840
6.000000	-0.342963	117.294211	-39.026048	-112.075041	-39.026048	-112.075041	-0.343027	117.280594
6.050000	-0.347013	115.007190	-38.993641	-115.227914	-38.993641	-115.227914	-0.347077	114.993195
6.100000	-0.351073	112.704537	-38.964877	-118.431484	-38.964877	-118.431484	-0.351136	112.690169
6.150000	-0.355141	110.386138	-38.939629	-121.686824	-38.939629	-121.686824	-0.355202	110.371405
6.200000	-0.359216	108.050995	-38.917928	-124.998081	-38.917928	-124.998081	-0.359276	108.035906
6.250000	-0.363298	105.699906	-38.899413	-128.363481	-38.899413	-128.363481	-0.363357	105.684471
6.300000	-0.367386	103.332844	-38.883881	-131.784022	-38.883881	-131.784022	-0.367443	103.317073
6.350000	-0.371481	100.949142	-38.871212	-135.263044	-38.871212	-135.263044	-0.371536	100.933049
6.400000	-0.375582	98.548667	-38.861141	-138.802147	-38.861141	-138.802147	-0.375635	98.532266
6.450000	-0.379690	96.132662	-38.853203	-142.397884	-38.853203	-142.397884	-0.379740	96.115967
6.500000	-0.383805	93.700384	-38.847175	-146.054048	-38.847175	-146.054048	-0.383852	93.683413
6.550000	-0.387927	91.251594	-38.842721	-149.772621	-38.842721	-149.772621	-0.387971	91.234365
6.600000	-0.392058	88.787634	-38.839338	-153.549534	-38.839338	-153.549534	-0.392098	88.770167
6.650000	-0.396199	86.306475	-38.836694	-157.393665	-38.836694	-157.393665	-0.396236	86.288794
6.700000	-0.400351	83.810744	-38.834221	-161.295623	-38.834221	-161.295623	-0.400384	83.792870
6.750000	-0.404517	81.299005	-38.831427	-165.261871	-38.831427	-165.261871	-0.404545	81.280964
6.800000	-0.408699	78.771929	-38.827738	-169.290383	-38.827738	-169.290383	-0.408722	78.753748
6.850000	-0.412899	76.229756	-38.822552	-173.380621	-38.822552	-173.380621	-0.412917	76.211466
6.900000	-0.417120	73.672601	-38.815201	-177.532335	-38.815201	-177.532335	-0.417134	73.654232
6.950000	-0.421367	71.100774	-38.804991	178.255831	-38.804991	178.255831	-0.421375	71.082360
7.000000	-0.425644	68.514764	-38.791248	173.986305	-38.791248	173.986305	-0.425645	68.496341
7.050000	-0.429953	65.914929	-38.773256	169.661327	-38.773256	169.661327	-0.429949	65.896533
7.100000	-0.434302	63.301650	-38.750285	165.283631	-38.750285	165.283631	-0.434291	63.283322
7.150000	-0.438695	60.675337	-38.721605	160.856470	-38.721605	160.856470	-0.438677	60.657119
7.200000	-0.443138	58.036422	-38.686491	156.383611	-38.686491	156.383611	-0.443113	58.018358
7.250000	-0.447639	55.385362	-38.644233	151.869336	-38.644233	151.869336	-0.447605	55.367497
7.300000	-0.452204	52.722635	-38.594147	147.318413	-38.594147	147.318413	-0.452163	52.705019
7.350000	-0.456842	50.048740	-38.535586	142.736059	-38.535586	142.736059	-0.456792	50.031422
7.400000	-0.461562	47.364191	-38.467944	138.127884	-38.467944	138.127884	-0.461503	47.347225
7.450000	-0.466373	44.669522	-38.390664	133.499820	-38.390664	133.499820	-0.466305	44.652963
7.500000	-0.471286	41.965279	-38.303244	128.858030	-38.303244	128.858030	-0.471209	41.949183
7.550000	-0.476316	39.251834	-38.204966	124.208800	-38.204966	124.208800	-0.476228	39.236264
7.600000	-0.481473	36.529963	-38.095668	119.558745	-38.095668	119.558745	-0.481375	36.514980
7.650000	-0.486771	33.800235	-37.974989	114.914066	-37.974989	114.914066	-0.486662	33.785902
7.700000	-0.492227	31.063220	-37.842595	110.280728	-37.842595	110.280728	-0.492106	31.049605
7.750000	-0.497859	28.319487	-37.698159	105.664321	-37.698159	105.664321	-0.497725	28.306658
7.800000	-0.503686	25.569595	-37.541330	101.069931	-37.541330	101.069931	-0.503539	25.557624
7.850000	-0.509732	22.814094	-37.371704	96.501995	-37.371704	96.501995	-0.509571	22.803053
7.900000	-0.516024	20.053511	-37.188774	91.964148	-37.188774	91.964148	-0.515848	20.043477
7.950000	-0.522593	17.288352	-36.991876	87.459050	-36.991876	87.459050	-0.522401	17.279403
8.000000	-0.529478	14.519088	-36.780116	82.988168	-36.780116	82.988168	-0.529268	14.511304
8.050000	-0.536726	11.746145	-36.552276	78.551499	-36.552276	78.551499	-0.536497	11.739611
8.100000	-0.544395	8.969896	-36.306687	74.147172	-36.306687	74.147172	-0.544144	8.964699
8.150000	-0.552568	6.190609	-36.040711	69.771077	-36.040711	69.771077	-0.552294	6.186841
8.200000	-0.561351	3.408495	-35.750990	65.415084	-35.750990	65.415084	-0.561049	3.406254
8.250000	-0.570879	0.623662	-35.433320	61.065859	-35.433320	61.065859	-0.570546	0.623048
8.300000	-0.581355	-2.163973	-35.081395	56.702688	-35.081395	56.702688	-0.580986	-2.162851
8.350000	-0.593064	-4.954659	-34.686996	52.293447	-34.686996	52.293447	-0.592650	-4.951684
8.400000	-0.606466	-7.748924	-34.237279	47.785491	-34.237279	47.785491	-0.605997	-7.743966
8.450000	-0.622327	-10.547516	-33.713096	43.088278	-33.713096	43.088278	-0.621788	-10.540430
8.500000	-0.642036	-13.351158	-33.083785	38.033000	-33.083785	38.033000	-0.641401	-13.341777
8.550000	-0.668030	-16.158882	-32.308153	32.311569	-32.308153	32.311569	-0.667257	-16.147024
8.600000	-0.705334	-18.962063	-31.320816	25.267757	-31.320816	25.267757	-0.704346	-18.947558
8.650000	-0.764627	-21.714384	-30.036807	15.336209	-30.036807	15.336209	-0.763275	-21.697249
8.700000	-0.860279	-24.193237	-28.504679	-1.359459	-28.504679	-1.359459	-0.858285	-24.174500
8.750000	-0.919613	-25.801079	-27.866508	-31.633820	-27.866508	-31.633820	-0.916780	-25.785761
8.800000	-0.757323	-27.726727	-30.980665	-65.562156	-30.980665	-65.562156	-0.755100	-27.719322
8.850000	-0.646559	-30.846154	-36.561442	-78.335369	-36.561442	-78.335369	-0.645524	-30.836594
8.900000	-0.622307	-33.974194	-41.767899	-67.451072	-41.767899	-67.451072	-0.621751	-33.959553
8.950000	-0.624545	-36.954524	-44.040845	-40.772106	-44.040845	-40.772106	-0.624149	-36.935308
9.000000	-0.634394	-39.841153	-43.308288	-21.036654	-43.308288	-21.036654	-0.634046	-39.817918
9.050000	-0.646650	-42.672578	-41.998528	-12.524752	-41.998528	-12.524752	-0.646305	-42.645656
9.100000	-0.659742	-45.470200	-40.892809	-9.546261	-40.892809	-9.546261	-0.659383	-45.439767
9.150000	-0.673189	-48.244831	-40.030192	-9.144173	-40.030192	-9.144173	-0.672805	-48.210978
9.200000	-0.686835	-51.003041	-39.352285	-10.007933	-39.352285	-10.007933	-0.686423	-50.965801
9.250000	-0.700648	-53.749123	-38.805984	-11.535294	-38.805984	-11.535294	-0.700204	-53.708496
9.300000	-0.714635	-56.485889	-38.354691	-13.434792	-38.354691	-13.434792	-0.714158	-56.441854
9.350000	-0.728821	-59.215292	-37.974024	-15.552233	-37.974024	-15.552233	-0.728308	-59.167813
9.400000	-0.743230	-61.938811	-37.647262	-17.798937	-37.647262	-17.798937	-0.742682	-61.887842
9.450000	-0.757888	-64.657637	-37.362676	-20.121205	-37.362676	-20.121205	-0.757302	-64.603124
9.500000	-0.772816	-67.372778	-37.111839	-22.485125	-37.111839	-22.485125	-0.772193	-67.314665
9.550000	-0.788034	-70.085135	-36.888557	-24.868542	-36.888557	-24.868542	-0.787373	-70.023359
9.600000	-0.803560	-72.795534	-36.688252	-27.256549	-36.688252	-27.256549	-0.802860	-72.730030
9.650000	-0.819411	-75.504778	-36.507397	-29.638764	-36.507397	-29.638764	-0.818672	-75.435480
9.700000	-0.835596	-78.213660	-36.343069	-32.008121	-36.343069	-32.008121	-0.834817	-78.140500
9.750000	-0.852126	-80.922949	-36.193084	-34.359643	-36.193084	-34.359643	-0.851307	-80.845860
9.800000	-0.869009	-83.633419	-36.055686	-36.689779	-36.055686	-36.689779	-0.868151	-83.552332
9.850000	-0.886254	-86.345853	-35.929445	-38.995990	-35.929445	-38.995990	-0.885356	-86.260698
9.900000	-0.903866	-89.061048	-35.813177	-41.276467	-35.813177	-41.276467	-0.902929	-88.971757
9.950000	-0.921851	-91.779818	-35.705895	-43.529933	-35.705895	-43.529933	-0.920876	-91.686321
10.000000	-0.940213	-94.502995	-35.606765	-45.755512	-35.606765	-45.755512	-0.939200	-94.405224
