! freq	dB(S11)	phase(S11)	dB(S12)	phase(S12)	
!     	dB(S21)	phase(S21)	dB(S22)	phase(S22)	
!S-par simulation data
#  GHz  S  DB  R 50
0.000000	-0.000000	-0.000000	-308.878760	180.000000	-308.878760	180.000000	0.000000	-0.000000
0.050000	-0.003039	-1.872590	-101.626543	88.185287	-101.626543	88.185287	-0.001617	-0.776045
0.100000	-0.006853	-3.716681	-95.663953	87.129701	-95.663953	87.129701	-0.003093	-1.538108
0.150000	-0.009214	-5.552286	-92.190117	85.984013	-92.190117	85.984013	-0.003882	-2.298475
0.200000	-0.010906	-7.387120	-89.746640	84.806389	-89.746640	84.806389	-0.004473	-3.059172
0.250000	-0.012371	-9.222021	-87.877655	83.624455	-87.877655	83.624455	-0.005034	-3.820088
0.300000	-0.013822	-11.056617	-86.380624	82.454574	-86.380624	82.454574	-0.005629	-4.580959
0.350000	-0.015342	-12.890515	-85.140765	81.304947	-85.140765	81.304947	-0.006272	-5.341608
0.400000	-0.016967	-14.723327	-84.095131	80.184113	-84.095131	80.184113	-0.006972	-6.101900
0.450000	-0.018707	-16.554747	-83.201844	79.099504	-83.201844	79.099504	-0.007726	-6.861738
0.500000	-0.020574	-18.384348	-82.436555	78.063392	-82.436555	78.063392	-0.008537	-7.620993
0.550000	-0.022553	-20.212010	-81.776058	77.081836	-81.776058	77.081836	-0.009395	-8.379641
0.600000	-0.024631	-22.037601	-81.204556	76.162650	-81.204556	76.162650	-0.010293	-9.137651
0.650000	-0.026798	-23.860970	-80.711032	75.315780	-80.711032	75.315780	-0.011225	-9.894993
0.700000	-0.029043	-25.681991	-80.287053	74.552454	-80.287053	74.552454	-0.012186	-10.651639
0.750000	-0.031354	-27.500551	-79.926050	73.885465	-79.926050	73.885465	-0.013171	-11.407572
0.800000	-0.033722	-29.316490	-79.623915	73.332659	-79.623915	73.332659	-0.014175	-12.162756
0.850000	-0.036136	-31.129539	-79.379368	72.922182	-79.379368	72.922182	-0.015194	-12.917131
0.900000	-0.038584	-32.939868	-79.184675	72.663996	-79.184675	72.663996	-0.016223	-13.670755
0.950000	-0.041056	-34.747421	-79.036695	72.581844	-79.036695	72.581844	-0.017259	-14.423621
1.000000	-0.043544	-36.552149	-78.932468	72.703294	-78.932468	72.703294	-0.018299	-15.175725
1.050000	-0.046040	-38.354012	-78.868958	73.060257	-78.868958	73.060257	-0.019341	-15.927062
1.100000	-0.048539	-40.152979	-78.842753	73.689426	-78.842753	73.689426	-0.020382	-16.677627
1.150000	-0.051035	-41.948808	-78.851726	74.659152	-78.851726	74.659152	-0.021420	-17.427360
1.200000	-0.053521	-43.741565	-78.888445	76.013335	-78.888445	76.013335	-0.022456	-18.176278
1.250000	-0.055995	-45.531364	-78.943761	77.788779	-78.943761	77.788779	-0.023487	-18.924409
1.300000	-0.058454	-47.318196	-79.007353	80.035737	-79.007353	80.035737	-0.024513	-19.671750
1.350000	-0.060894	-49.102058	-79.065703	82.798469	-79.065703	82.798469	-0.025534	-20.418292
1.400000	-0.063315	-50.882950	-79.101715	86.106475	-79.101715	86.106475	-0.026549	-21.164030
1.450000	-0.065715	-52.660859	-79.094491	89.965743	-79.094491	89.965743	-0.027559	-21.908950
1.500000	-0.068091	-54.435488	-79.011663	94.381767	-79.011663	94.381767	-0.028562	-22.652958
1.550000	-0.070445	-56.207177	-78.836535	99.190606	-78.836535	99.190606	-0.029560	-23.396135
1.600000	-0.072776	-57.975946	-78.552336	104.237397	-78.552336	104.237397	-0.030553	-24.138469
1.650000	-0.075085	-59.741815	-78.151100	109.331973	-78.151100	109.331973	-0.031541	-24.879952
1.700000	-0.077373	-61.504645	-77.627301	114.256820	-77.627301	114.256820	-0.032525	-25.620521
1.750000	-0.079640	-63.264674	-77.004304	118.847306	-77.004304	118.847306	-0.033505	-26.360227
1.800000	-0.081888	-65.021854	-76.298058	122.972079	-76.298058	122.972079	-0.034481	-27.099031
1.850000	-0.084118	-66.776226	-75.531112	126.559319	-75.531112	126.559319	-0.035454	-27.836921
1.900000	-0.086332	-68.527837	-74.725015	129.587685	-74.725015	129.587685	-0.036425	-28.573885
1.950000	-0.088531	-70.276737	-73.898170	132.072965	-73.898170	132.072965	-0.037394	-29.309908
2.000000	-0.090717	-72.022981	-73.065060	134.053752	-73.065060	134.053752	-0.038361	-30.044978
2.050000	-0.092891	-73.766630	-72.236380	135.579707	-72.236380	135.579707	-0.039328	-30.779081
2.100000	-0.095056	-75.507750	-71.419611	136.703471	-71.419611	136.703471	-0.040294	-31.512202
2.150000	-0.097213	-77.246412	-70.619712	137.475824	-70.619712	137.475824	-0.041260	-32.244329
2.200000	-0.099365	-78.982691	-69.839765	137.943219	-69.839765	137.943219	-0.042227	-32.975447
2.250000	-0.101512	-80.716669	-69.081503	138.146815	-69.081503	138.146815	-0.043194	-33.705543
2.300000	-0.103658	-82.448433	-68.345719	138.122389	-68.345719	138.122389	-0.044164	-34.434603
2.350000	-0.105805	-84.178076	-67.632566	137.900683	-67.632566	137.900683	-0.045135	-35.162612
2.400000	-0.107953	-85.905694	-66.941770	137.507948	-66.941770	137.507948	-0.046108	-35.889558
2.450000	-0.110105	-87.631392	-66.272789	136.966533	-66.272789	136.966533	-0.047085	-36.615428
2.500000	-0.112263	-89.355277	-65.624911	136.295454	-65.624911	136.295454	-0.048065	-37.340207
2.550000	-0.114429	-91.077397	-64.996269	135.506614	-64.996269	135.506614	-0.049049	-38.063834
2.600000	-0.116605	-92.797951	-64.387235	134.619171	-64.387235	134.619171	-0.050037	-38.786345
2.650000	-0.118792	-94.517066	-63.796924	133.644706	-63.796924	133.644706	-0.051029	-39.507725
2.700000	-0.120993	-96.234872	-63.224466	132.593176	-63.224466	132.593176	-0.052027	-40.227963
2.750000	-0.123209	-97.951509	-62.669022	131.473163	-62.669022	131.473163	-0.053030	-40.947047
2.800000	-0.125441	-99.667119	-62.129783	130.292091	-62.129783	130.292091	-0.054038	-41.664965
2.850000	-0.127692	-101.381851	-61.605983	129.056402	-61.605983	129.056402	-0.055053	-42.381705
2.900000	-0.129963	-103.095859	-61.096897	127.771705	-61.096897	127.771705	-0.056074	-43.097256
2.950000	-0.132255	-104.809303	-60.601841	126.442896	-60.601841	126.442896	-0.057103	-43.811607
3.000000	-0.134570	-106.522349	-60.120170	125.074267	-60.120170	125.074267	-0.058138	-44.524747
3.050000	-0.136910	-108.235167	-59.651281	123.669588	-59.651281	123.669588	-0.059181	-45.236666
3.100000	-0.139276	-109.947933	-59.194606	122.232182	-59.194606	122.232182	-0.060232	-45.947353
3.150000	-0.141669	-111.660830	-58.749614	120.764985	-58.749614	120.764985	-0.061291	-46.656800
3.200000	-0.144090	-113.374044	-58.315806	119.270598	-58.315806	119.270598	-0.062359	-47.364996
3.250000	-0.146542	-115.087768	-57.892715	117.751332	-57.892715	117.751332	-0.063435	-48.071932
3.300000	-0.149025	-116.802199	-57.479903	116.209243	-57.479903	116.209243	-0.064522	-48.777600
3.350000	-0.151540	-118.517541	-57.076958	114.646168	-57.076958	114.646168	-0.065617	-49.481990
3.400000	-0.154089	-120.234000	-56.683495	113.063747	-56.683495	113.063747	-0.066723	-50.185096
3.450000	-0.156672	-121.951790	-56.299153	111.463451	-56.299153	111.463451	-0.067839	-50.886908
3.500000	-0.159291	-123.671130	-55.923590	109.846599	-55.923590	109.846599	-0.068966	-51.587420
3.550000	-0.161947	-125.392242	-55.556488	108.214379	-55.556488	108.214379	-0.070104	-52.286624
3.600000	-0.164640	-127.115355	-55.197545	106.567859	-55.197545	106.567859	-0.071253	-52.984514
3.650000	-0.167373	-128.840702	-54.846479	104.908002	-54.846479	104.908002	-0.072414	-53.681082
3.700000	-0.170144	-130.568520	-54.503024	103.235681	-54.503024	103.235681	-0.073588	-54.376323
3.750000	-0.172956	-132.299052	-54.166929	101.551683	-54.166929	101.551683	-0.074773	-55.070230
3.800000	-0.175812	-134.032686	-53.837728	99.856276	-53.837728	99.856276	-0.075972	-55.762741
3.850000	-0.178709	-135.769556	-53.515455	98.150604	-53.515455	98.150604	-0.077185	-56.453907
3.900000	-0.181648	-137.509920	-53.199897	96.435250	-53.199897	96.435250	-0.078411	-57.143723
3.950000	-0.184632	-139.254040	-52.890854	94.710741	-52.890854	94.710741	-0.079650	-57.832186
4.000000	-0.187659	-141.002180	-52.588140	92.977557	-52.588140	92.977557	-0.080905	-58.519290
4.050000	-0.190730	-142.754611	-52.291575	91.236137	-52.291575	91.236137	-0.082173	-59.205033
4.100000	-0.193847	-144.511607	-52.000993	89.486883	-52.000993	89.486883	-0.083457	-59.889409
4.150000	-0.197009	-146.273447	-51.716235	87.730159	-51.716235	87.730159	-0.084756	-60.572417
4.200000	-0.200217	-148.040413	-51.437151	85.966302	-51.437151	85.966302	-0.086071	-61.254054
4.250000	-0.203471	-149.812791	-51.163600	84.195619	-51.163600	84.195619	-0.087403	-61.934315
4.300000	-0.206772	-151.590871	-50.895450	82.418392	-50.895450	82.418392	-0.088750	-62.613200
4.350000	-0.210119	-153.374946	-50.632573	80.634881	-50.632573	80.634881	-0.090115	-63.290706
4.400000	-0.213514	-155.165314	-50.374853	78.845327	-50.374853	78.845327	-0.091497	-63.966832
4.450000	-0.216956	-156.962275	-50.122175	77.049951	-50.122175	77.049951	-0.092896	-64.641575
4.500000	-0.220445	-158.766133	-49.874435	75.248959	-49.874435	75.248959	-0.094314	-65.314936
4.550000	-0.223982	-160.577195	-49.631532	73.442541	-49.631532	73.442541	-0.095750	-65.986913
4.600000	-0.227567	-162.395770	-49.393372	71.630876	-49.393372	71.630876	-0.097205	-66.657505
4.650000	-0.231199	-164.222171	-49.159866	69.814132	-49.159866	69.814132	-0.098679	-67.326713
4.700000	-0.234878	-166.056713	-48.930930	67.992465	-48.930930	67.992465	-0.100173	-67.994536
4.750000	-0.238605	-167.899714	-48.706484	66.166023	-48.706484	66.166023	-0.101686	-68.660974
4.800000	-0.242379	-169.751494	-48.486453	64.334947	-48.486453	64.334947	-0.103221	-69.326030
4.850000	-0.246201	-171.612374	-48.270767	62.499373	-48.270767	62.499373	-0.104775	-69.989702
4.900000	-0.250069	-173.482679	-48.059360	60.659428	-48.059360	60.659428	-0.106351	-70.651993
4.950000	-0.253985	-175.362735	-47.852167	58.815238	-47.852167	58.815238	-0.107949	-71.312904
5.000000	-0.257947	-177.252867	-47.649131	56.966922	-47.649131	56.966922	-0.109568	-71.972437
5.050000	-0.261957	-179.153874	-47.450176	55.114431	-47.450176	55.114431	-0.111211	-72.630534
5.100000	-0.266013	178.934353	-47.255279	53.258060	-47.255279	53.258060	-0.112877	-73.287257
5.150000	-0.270115	177.011484	-47.064390	51.397922	-47.064390	51.397922	-0.114566	-73.942609
5.200000	-0.274262	175.077186	-46.877460	49.534131	-46.877460	49.534131	-0.116278	-74.596593
5.250000	-0.278455	173.131128	-46.694443	47.666802	-46.694443	47.666802	-0.118014	-75.249212
5.300000	-0.282693	171.172977	-46.515295	45.796047	-46.515295	45.796047	-0.119775	-75.900469
5.350000	-0.286976	169.202400	-46.339975	43.921981	-46.339975	43.921981	-0.121560	-76.550368
5.400000	-0.291305	167.219063	-46.168441	42.044722	-46.168441	42.044722	-0.123371	-77.198912
5.450000	-0.295678	165.222633	-46.000655	40.164384	-46.000655	40.164384	-0.125207	-77.846107
5.500000	-0.300096	163.212775	-45.836578	38.281089	-45.836578	38.281089	-0.127069	-78.491956
5.550000	-0.304559	161.189155	-45.676172	36.394956	-45.676172	36.394956	-0.128957	-79.136464
5.600000	-0.309069	159.151438	-45.519399	34.506109	-45.519399	34.506109	-0.130873	-79.779635
5.650000	-0.313625	157.099288	-45.366223	32.614671	-45.366223	32.614671	-0.132815	-80.421476
5.700000	-0.318229	155.032368	-45.216603	30.720771	-45.216603	30.720771	-0.134785	-81.061991
5.750000	-0.322882	152.950337	-45.070503	28.824535	-45.070503	28.824535	-0.136782	-81.701186
5.800000	-0.327585	150.852855	-44.927879	26.926092	-44.927879	26.926092	-0.138808	-82.339067
5.850000	-0.332341	148.739574	-44.788688	25.025572	-44.788688	25.025572	-0.140863	-82.975639
5.900000	-0.337152	146.610145	-44.652886	23.123102	-44.652886	23.123102	-0.142946	-83.610909
5.950000	-0.342022	144.464210	-44.520421	21.218808	-44.520421	21.218808	-0.145060	-84.244884
6.000000	-0.346955	142.301403	-44.391240	19.312813	-44.391240	19.312813	-0.147203	-84.877570
6.050000	-0.351956	140.121346	-44.265282	17.405235	-44.265282	17.405235	-0.149376	-85.508975
6.100000	-0.357030	137.923647	-44.142481	15.496182	-44.142481	15.496182	-0.151580	-86.139105
6.150000	-0.362186	135.707897	-44.022762	13.585752	-44.022762	13.585752	-0.153814	-86.767967
6.200000	-0.367433	133.473663	-43.906041	11.674026	-43.906041	11.674026	-0.156080	-87.395570
6.250000	-0.372781	131.220482	-43.792222	9.761066	-43.792222	9.761066	-0.158378	-88.021922
6.300000	-0.378248	128.946986	-43.681251	7.846855	-43.681251	7.846855	-0.160709	-88.646975
6.350000	-0.383848	126.653448	-43.572939	5.931439	-43.572939	5.931439	-0.163073	-89.270794
6.400000	-0.389600	124.339259	-43.467138	4.014766	-43.467138	4.014766	-0.165469	-89.893387
6.450000	-0.395527	122.003739	-43.363675	2.096721	-43.363675	2.096721	-0.167899	-90.514762
6.500000	-0.401659	119.646114	-43.262350	0.177113	-43.262350	0.177113	-0.170362	-91.134928
6.550000	-0.408030	117.265500	-43.162927	-1.744348	-43.162927	-1.744348	-0.172859	-91.753894
6.600000	-0.414685	114.860873	-43.065132	-3.668080	-43.065132	-3.668080	-0.175390	-92.371670
6.650000	-0.421676	112.431032	-42.968640	-5.594661	-42.968640	-5.594661	-0.177955	-92.988265
6.700000	-0.429015	109.977811	-42.873128	-7.524355	-42.873128	-7.524355	-0.180552	-93.603823
6.750000	-0.436906	107.491913	-42.778035	-9.459367	-42.778035	-9.459367	-0.183188	-94.218033
6.800000	-0.445338	104.977870	-42.682957	-11.399986	-42.682957	-11.399986	-0.185858	-94.831176
6.850000	-0.454514	102.429556	-42.587086	-13.348846	-42.587086	-13.348846	-0.188565	-95.443127
6.900000	-0.464555	99.845891	-42.489765	-15.307851	-42.489765	-15.307851	-0.191307	-96.053964
6.950000	-0.475671	97.223083	-42.390051	-17.280200	-42.390051	-17.280200	-0.194084	-96.663696
7.000000	-0.488217	94.553874	-42.286538	-19.271084	-42.286538	-19.271084	-0.196900	-97.272271
7.050000	-0.502376	91.837824	-42.178478	-21.283660	-42.178478	-21.283660	-0.199749	-97.879827
7.100000	-0.519012	89.057385	-42.062786	-23.330550	-42.062786	-23.330550	-0.202637	-98.486186
7.150000	-0.538330	86.214520	-41.939050	-25.415195	-41.939050	-25.415195	-0.205559	-99.091568
7.200000	-0.561917	83.282390	-41.802319	-27.560540	-41.802319	-27.560540	-0.208520	-99.695800
7.250000	-0.590434	80.257718	-41.651625	-29.775578	-41.651625	-29.775578	-0.211514	-100.299063
7.300000	-0.626675	77.102779	-41.480105	-32.098410	-41.480105	-32.098410	-0.214544	-100.901243
7.350000	-0.673693	73.786664	-41.282515	-34.567171	-41.282515	-34.567171	-0.217608	-101.502402
7.400000	-0.736770	70.258476	-41.050916	-37.243952	-41.050916	-37.243952	-0.220705	-102.102557
7.450000	-0.824822	66.442881	-40.774818	-40.224678	-40.774818	-40.224678	-0.223831	-102.701731
7.500000	-0.953798	62.225123	-40.440468	-43.663222	-40.440468	-43.663222	-0.226984	-103.299956
7.550000	-1.155772	57.416066	-40.029262	-47.830574	-40.029262	-47.830574	-0.230157	-103.897277
7.600000	-1.496694	51.732660	-39.523497	-53.186541	-39.523497	-53.186541	-0.233342	-104.493807
7.650000	-2.133809	44.761376	-38.918255	-60.590488	-38.918255	-60.590488	-0.236532	-105.089763
7.700000	-3.489750	36.291897	-38.283221	-71.631524	-38.283221	-71.631524	-0.239741	-105.685604
7.750000	-6.814476	30.219700	-37.980899	-88.771258	-37.980899	-88.771258	-0.243101	-106.282002
7.800000	-11.762785	66.059996	-39.023243	-112.291310	-39.023243	-112.291310	-0.246939	-106.878014
7.850000	-6.198815	95.226817	-42.350676	-133.887208	-42.350676	-133.887208	-0.251118	-107.469904
7.900000	-3.079942	87.390332	-47.447718	-143.301589	-47.447718	-143.301589	-0.255044	-108.058490
7.950000	-1.834729	78.379451	-53.389542	-133.130108	-53.389542	-133.130108	-0.258743	-108.646382
8.000000	-1.268170	71.172904	-56.962132	-94.956666	-56.962132	-94.956666	-0.262384	-109.234050
8.050000	-0.976373	65.378688	-55.356038	-64.064462	-55.356038	-64.064462	-0.266042	-109.821324
8.100000	-0.808710	60.497934	-53.260261	-52.442773	-53.260261	-52.442773	-0.269739	-110.408057
8.150000	-0.706418	56.239262	-51.805410	-48.270920	-51.805410	-48.270920	-0.273484	-110.994143
8.200000	-0.639915	52.399059	-50.815037	-46.696278	-50.815037	-46.696278	-0.277277	-111.579547
8.250000	-0.595103	48.861070	-50.121872	-46.193705	-50.121872	-46.193705	-0.281119	-112.164234
8.300000	-0.563727	45.541368	-49.618826	-46.154937	-49.618826	-46.154937	-0.285010	-112.748210
8.350000	-0.541278	42.388868	-49.244922	-46.319973	-49.244922	-46.319973	-0.288949	-113.331469
8.400000	-0.524890	39.365629	-48.960210	-46.561111	-48.960210	-46.561111	-0.292936	-113.914027
8.450000	-0.512822	36.446769	-48.739504	-46.811648	-48.739504	-46.811648	-0.296972	-114.495888
8.500000	-0.503897	33.613587	-48.564993	-47.034215	-48.564993	-47.034215	-0.301055	-115.077064
8.550000	-0.497314	30.852262	-48.423843	-47.207844	-48.423843	-47.207844	-0.305186	-115.657569
8.600000	-0.492517	28.152413	-48.306461	-47.321141	-48.306461	-47.321141	-0.309366	-116.237416
8.650000	-0.489111	25.506124	-48.205446	-47.368751	-48.205446	-47.368751	-0.313593	-116.816621
8.700000	-0.486811	22.907284	-48.114928	-47.349429	-48.114928	-47.349429	-0.317868	-117.395198
8.750000	-0.485404	20.351123	-48.030160	-47.264944	-48.030160	-47.264944	-0.322191	-117.973164
8.800000	-0.484749	17.834656	-47.947195	-47.118215	-47.947195	-47.118215	-0.326564	-118.550523
8.850000	-0.484709	15.354006	-47.862752	-46.916768	-47.862752	-46.916768	-0.330984	-119.127304
8.900000	-0.485195	12.906803	-47.774223	-46.668208	-47.774223	-46.668208	-0.335454	-119.703525
8.950000	-0.486138	10.491128	-47.679496	-46.381332	-47.679496	-46.381332	-0.339971	-120.279203
9.000000	-0.487485	8.105413	-47.576906	-46.065828	-47.576906	-46.065828	-0.344538	-120.854355
9.050000	-0.489195	5.748370	-47.465200	-45.731967	-47.465200	-45.731967	-0.349153	-121.429000
9.100000	-0.491233	3.418932	-47.343509	-45.390298	-47.343509	-45.390298	-0.353818	-122.003156
9.150000	-0.493575	1.116206	-47.211315	-45.051345	-47.211315	-45.051345	-0.358531	-122.576841
9.200000	-0.496224	-1.158076	-47.067137	-44.727405	-47.067137	-44.727405	-0.363298	-123.150031
9.250000	-0.499114	-3.409310	-46.913475	-44.425185	-46.913475	-44.425185	-0.368111	-123.722827
9.300000	-0.502256	-5.635779	-46.749552	-44.154452	-46.749552	-44.154452	-0.372973	-124.295210
9.350000	-0.505640	-7.837963	-46.575904	-43.923040	-46.575904	-43.923040	-0.377885	-124.867197
9.400000	-0.509256	-10.016285	-46.393229	-43.737712	-46.393229	-43.737712	-0.382846	-125.438809
9.450000	-0.513098	-12.171126	-46.202342	-43.604094	-46.202342	-43.604094	-0.387857	-126.010066
9.500000	-0.517159	-14.302828	-46.004139	-43.526671	-46.004139	-43.526671	-0.392918	-126.580987
9.550000	-0.521436	-16.411710	-45.799562	-43.508806	-45.799562	-43.508806	-0.398030	-127.151593
9.600000	-0.525924	-18.498066	-45.589566	-43.552813	-45.589566	-43.552813	-0.403191	-127.721904
9.650000	-0.530620	-20.562177	-45.375097	-43.660039	-45.375097	-43.660039	-0.408402	-128.291940
9.700000	-0.535521	-22.604310	-45.157069	-43.830971	-45.157069	-43.830971	-0.413664	-128.861723
9.750000	-0.540626	-24.624724	-44.936348	-44.065351	-44.936348	-44.065351	-0.418976	-129.431274
9.800000	-0.545931	-26.623673	-44.713744	-44.362286	-44.713744	-44.362286	-0.424339	-130.000613
9.850000	-0.551436	-28.601407	-44.489999	-44.720366	-44.489999	-44.720366	-0.429752	-130.569763
9.900000	-0.557139	-30.558173	-44.265789	-45.137764	-44.265789	-45.137764	-0.435215	-131.138745
9.950000	-0.563038	-32.494217	-44.041719	-45.612335	-44.041719	-45.612335	-0.440729	-131.707582
10.000000	-0.569132	-34.409787	-43.818325	-46.141700	-43.818325	-46.141700	-0.446294	-132.276295
