! freq	dB(S11)	phase(S11)	dB(S12)	phase(S12)	
!     	dB(S21)	phase(S21)	dB(S22)	phase(S22)	
!S-par simulation data
#  GHz  S  DB  R 50
0.000000	-0.000000	0.000000	-364.531091	180.000000	-364.531091	180.000000	-0.000000	0.000000
0.050000	-0.000094	-0.805465	-110.389299	95.536136	-110.389299	95.536136	-0.000074	-0.805865
0.100000	-0.000374	-1.610717	-104.368269	91.653251	-104.368269	91.653251	-0.000295	-1.611697
0.150000	-0.000829	-2.415559	-100.882431	89.867330	-100.882431	89.867330	-0.000657	-2.417457
0.200000	-0.001443	-3.219823	-98.438401	88.620666	-98.438401	88.620666	-0.001148	-3.223101
0.250000	-0.002208	-4.023312	-96.574557	87.617034	-96.574557	87.617034	-0.001766	-4.028561
0.300000	-0.003090	-4.825982	-95.080383	86.737892	-95.080383	86.737892	-0.002486	-4.833789
0.350000	-0.004075	-5.627719	-93.847956	85.954944	-93.847956	85.954944	-0.003302	-5.638707
0.400000	-0.005142	-6.428469	-92.811979	85.252444	-92.811979	85.252444	-0.004201	-6.443243
0.450000	-0.006271	-7.228202	-91.930533	84.625834	-91.930533	84.625834	-0.005171	-7.247321
0.500000	-0.007446	-8.026911	-91.175184	84.076694	-91.175184	84.076694	-0.006203	-8.050873
0.550000	-0.008651	-8.824605	-90.525833	83.610613	-90.525833	83.610613	-0.007286	-8.853831
0.600000	-0.009874	-9.621302	-89.967806	83.236282	-89.967806	83.236282	-0.008411	-9.656139
0.650000	-0.011104	-10.417029	-89.490102	82.965184	-89.490102	82.965184	-0.009570	-10.457743
0.700000	-0.012332	-11.211814	-89.084282	82.811609	-89.084282	82.811609	-0.010755	-11.258600
0.750000	-0.013554	-12.005687	-88.743710	82.792882	-88.743710	82.792882	-0.011962	-12.058674
0.800000	-0.014765	-12.798675	-88.463017	82.929752	-88.463017	82.929752	-0.013183	-12.857932
0.850000	-0.015961	-13.590804	-88.237670	83.246893	-88.237670	83.246893	-0.014414	-13.656350
0.900000	-0.017142	-14.382094	-88.063609	83.773498	-88.063609	83.773498	-0.015651	-14.453908
0.950000	-0.018305	-15.172561	-87.936879	84.543909	-87.936879	84.543909	-0.016889	-15.250588
1.000000	-0.019452	-15.962217	-87.853240	85.598179	-87.853240	85.598179	-0.018125	-16.046379
1.050000	-0.020582	-16.751069	-87.807693	86.982384	-87.807693	86.982384	-0.019358	-16.841270
1.100000	-0.021696	-17.539123	-87.793911	88.748353	-87.793911	88.748353	-0.020583	-17.635250
1.150000	-0.022795	-18.326376	-87.803535	90.952289	-87.803535	90.952289	-0.021801	-18.428314
1.200000	-0.023880	-19.112827	-87.825362	93.651460	-87.825362	93.651460	-0.023008	-19.220453
1.250000	-0.024953	-19.898470	-87.844521	96.897884	-87.844521	96.897884	-0.024205	-20.011662
1.300000	-0.026014	-20.683260	-87.839818	100.753304	-87.839818	100.753304	-0.025389	-20.801893
1.350000	-0.027065	-21.467221	-87.787593	105.193180	-87.787593	105.193180	-0.026561	-21.591180
1.400000	-0.028107	-22.250341	-87.661724	110.165326	-87.661724	110.165326	-0.027720	-22.379516
1.450000	-0.029142	-23.032608	-87.437280	115.553877	-87.437280	115.553877	-0.028866	-23.166895
1.500000	-0.030170	-23.814005	-87.095390	121.181403	-87.095390	121.181403	-0.030001	-23.953307
1.550000	-0.031192	-24.594517	-86.627777	126.830729	-86.627777	126.830729	-0.031123	-24.738746
1.600000	-0.032210	-25.374128	-86.038822	132.281568	-86.038822	132.281568	-0.032233	-25.523202
1.650000	-0.033224	-26.152821	-85.344047	137.347718	-85.344047	137.347718	-0.033332	-26.306665
1.700000	-0.034234	-26.930245	-84.519322	141.693727	-84.519322	141.693727	-0.034417	-27.088772
1.750000	-0.035243	-27.707175	-83.702372	145.745524	-83.702372	145.745524	-0.035496	-27.870352
1.800000	-0.036250	-28.482915	-82.823375	149.090391	-82.823375	149.090391	-0.036565	-28.650678
1.850000	-0.037256	-29.257806	-81.940066	151.930310	-81.940066	151.930310	-0.037626	-29.430110
1.900000	-0.038262	-30.031639	-81.049998	154.255812	-81.049998	154.255812	-0.038679	-30.208441
1.950000	-0.039268	-30.804413	-80.162984	156.066899	-80.162984	156.066899	-0.039725	-30.985671
2.000000	-0.040275	-31.576275	-79.300209	157.549860	-79.300209	157.549860	-0.040766	-31.761961
2.050000	-0.041282	-32.346858	-78.441807	158.573443	-78.441807	158.573443	-0.041800	-32.536933
2.100000	-0.042291	-33.116687	-77.623146	159.402957	-77.623146	159.402957	-0.042831	-33.311134
2.150000	-0.043302	-33.885006	-76.806622	159.844333	-76.806622	159.844333	-0.043857	-34.083792
2.200000	-0.044315	-34.652741	-76.036972	160.178397	-76.036972	160.178397	-0.044882	-34.855855
2.250000	-0.045332	-35.418725	-75.265807	160.190521	-75.265807	160.190521	-0.045903	-35.626137
2.300000	-0.046350	-36.184310	-74.544387	160.149284	-74.544387	160.149284	-0.046925	-36.396013
2.350000	-0.047373	-36.947892	-73.817575	159.841244	-73.817575	159.841244	-0.047945	-37.163860
2.400000	-0.048397	-37.711269	-73.141240	159.512950	-73.141240	159.512950	-0.048965	-37.931499
2.450000	-0.049429	-38.472386	-72.455952	158.961858	-72.455952	158.961858	-0.049988	-38.696850
2.500000	-0.050461	-39.233503	-71.820800	158.410767	-71.820800	158.410767	-0.051010	-39.462202
2.550000	-0.051502	-39.992094	-71.173633	157.671419	-71.173633	157.671419	-0.052037	-40.225000
2.600000	-0.052544	-40.750686	-70.571360	156.932070	-70.571360	156.932070	-0.053065	-40.987799
2.650000	-0.053595	-41.506911	-69.963265	156.056194	-69.963265	156.056194	-0.054100	-41.748205
2.700000	-0.054648	-42.262921	-69.391160	155.167906	-69.391160	155.167906	-0.055135	-42.508393
2.750000	-0.055710	-43.016736	-68.817978	154.179234	-68.817978	154.179234	-0.056180	-43.266361
2.800000	-0.056775	-43.770113	-68.273457	153.170484	-68.273457	153.170484	-0.057226	-44.023885
2.850000	-0.057850	-44.521480	-67.731563	152.086931	-67.731563	152.086931	-0.058282	-44.779372
2.900000	-0.058929	-45.272176	-67.212247	150.978443	-67.212247	150.978443	-0.059342	-45.534180
2.950000	-0.060018	-46.021057	-66.698487	149.813477	-66.698487	149.813477	-0.060412	-46.287145
3.000000	-0.061112	-46.769030	-66.202219	148.620271	-66.202219	148.620271	-0.061487	-47.039189
3.050000	-0.062215	-47.515393	-65.713847	147.383857	-65.713847	147.383857	-0.062573	-47.789594
3.100000	-0.063326	-48.260607	-65.238679	146.116582	-65.238679	146.116582	-0.063666	-48.538828
3.150000	-0.064446	-49.004425	-64.773291	144.815829	-64.773291	144.815829	-0.064770	-49.286638
3.200000	-0.065574	-49.746847	-64.317462	143.481598	-64.317462	143.481598	-0.065883	-50.033022
3.250000	-0.066711	-50.488096	-63.872938	142.121151	-63.872938	142.121151	-0.067006	-50.778204
3.300000	-0.067860	-51.227702	-63.434842	140.724000	-63.434842	140.724000	-0.068141	-51.521703
3.350000	-0.069014	-51.966523	-63.010731	139.309701	-63.010731	139.309701	-0.069283	-52.264392
3.400000	-0.070181	-52.703770	-62.592919	137.861104	-62.592919	137.861104	-0.070438	-53.005462
3.450000	-0.071361	-53.439232	-62.179425	136.373031	-62.179425	136.373031	-0.071610	-53.744685
3.500000	-0.072551	-54.173537	-61.775365	134.858467	-61.775365	134.858467	-0.072792	-54.482707
3.550000	-0.073751	-54.906688	-61.380248	133.316829	-61.380248	133.316829	-0.073985	-55.219526
3.600000	-0.074965	-55.638266	-60.990341	131.736495	-60.990341	131.736495	-0.075193	-55.954701
3.650000	-0.076192	-56.368385	-60.606159	130.116596	-60.606159	130.116596	-0.076416	-56.688338
3.700000	-0.077431	-57.097365	-60.229756	128.463135	-60.229756	128.463135	-0.077651	-57.420765
3.750000	-0.078681	-57.825208	-59.860736	126.774699	-59.860736	126.774699	-0.078899	-58.151983
3.800000	-0.079950	-58.551221	-59.493191	125.020098	-59.493191	125.020098	-0.080167	-58.881225
3.850000	-0.081233	-59.276139	-59.132128	123.217438	-59.132128	123.217438	-0.081449	-59.609264
3.900000	-0.082528	-59.999977	-58.777131	121.362823	-58.777131	121.362823	-0.082744	-60.336104
3.950000	-0.083841	-60.722470	-58.425361	119.433403	-58.425361	119.433403	-0.084056	-61.061426
4.000000	-0.085175	-61.443595	-58.075040	117.402982	-58.075040	117.402982	-0.085388	-61.785143
4.050000	-0.086526	-62.163776	-57.728724	115.282243	-57.728724	115.282243	-0.086735	-62.507701
4.100000	-0.087894	-62.883048	-57.385957	113.062031	-57.385957	113.062031	-0.088097	-63.229112
4.150000	-0.089293	-63.601088	-57.039027	110.640763	-57.039027	110.640763	-0.089485	-63.948809
4.200000	-0.090721	-64.318478	-56.690327	108.019839	-56.690327	108.019839	-0.090892	-64.667368
4.250000	-0.092180	-65.035426	-56.339269	105.176044	-56.339269	105.176044	-0.092318	-65.384939
4.300000	-0.093682	-65.752069	-55.980465	102.012333	-55.980465	102.012333	-0.093771	-66.101415
4.350000	-0.095273	-66.469232	-55.595720	98.228419	-55.595720	98.228419	-0.095265	-66.816853
4.400000	-0.096975	-67.187767	-55.182581	93.770007	-55.182581	93.770007	-0.096803	-67.531928
4.450000	-0.098803	-67.907988	-54.741186	88.584996	-54.741186	88.584996	-0.098391	-68.246806
4.500000	-0.101057	-68.634309	-54.186431	81.468642	-54.186431	81.468642	-0.100126	-68.962608
4.550000	-0.104240	-69.372029	-53.430150	71.347699	-53.430150	71.347699	-0.102169	-69.681382
4.600000	-0.110328	-70.135262	-52.199050	55.212739	-52.199050	55.212739	-0.105166	-70.408074
4.650000	-0.130122	-70.954376	-49.693883	24.369556	-49.693883	24.369556	-0.112709	-71.153832
4.700000	-0.209940	-71.487875	-45.705945	-51.944382	-45.705945	-51.944382	-0.141274	-71.809167
4.750000	-0.151506	-71.690633	-49.233426	-146.136410	-49.233426	-146.136410	-0.123709	-72.332319
4.800000	-0.124251	-72.488349	-51.892962	172.298280	-51.892962	172.298280	-0.115068	-73.064144
4.850000	-0.118150	-73.247722	-52.690340	150.829795	-52.690340	150.829795	-0.113911	-73.783910
4.900000	-0.116876	-73.977033	-52.838424	138.121700	-52.838424	138.121700	-0.114509	-74.492689
4.950000	-0.117140	-74.690869	-52.763371	129.647260	-52.763371	129.647260	-0.115683	-75.195244
5.000000	-0.118001	-75.396526	-52.607464	123.262816	-52.607464	123.262816	-0.117091	-75.894141
5.050000	-0.119328	-76.093520	-52.396867	118.814536	-52.396867	118.814536	-0.118697	-76.588540
5.100000	-0.120655	-76.790513	-52.191254	114.366257	-52.191254	114.366257	-0.120303	-77.282939
5.150000	-0.122228	-77.481055	-51.964331	111.040910	-51.964331	111.040910	-0.122032	-77.973305
5.200000	-0.123823	-78.171011	-51.740879	107.817647	-51.740879	107.817647	-0.123772	-78.663303
5.250000	-0.125537	-78.856802	-51.512037	105.098866	-51.512037	105.098866	-0.125584	-79.350228
5.300000	-0.127275	-79.541760	-51.286928	102.480980	-51.286928	102.480980	-0.127410	-80.036538
5.350000	-0.129086	-80.223634	-51.061080	100.119247	-51.061080	100.119247	-0.129290	-80.720324
5.400000	-0.130921	-80.904480	-50.838868	97.842897	-50.838868	97.842897	-0.131188	-81.403268
5.450000	-0.132811	-81.582888	-50.617709	95.707243	-50.617709	95.707243	-0.133129	-82.084087
5.500000	-0.134728	-82.260077	-50.399851	93.641938	-50.399851	93.641938	-0.135092	-82.763843
5.550000	-0.136688	-82.935289	-50.183931	91.657934	-50.183931	91.657934	-0.137092	-83.441805
5.600000	-0.138678	-83.609089	-49.970883	89.732002	-49.970883	89.732002	-0.139119	-84.118487
5.650000	-0.140703	-84.281282	-49.760312	87.854498	-49.760312	87.854498	-0.141177	-84.793675
5.700000	-0.142763	-84.951867	-49.552164	86.025421	-49.552164	86.025421	-0.143266	-85.467368
5.750000	-0.144852	-85.621164	-49.346874	84.225552	-49.346874	84.225552	-0.145381	-86.139845
5.800000	-0.146981	-86.288659	-49.143573	82.466574	-49.143573	82.466574	-0.147534	-86.810619
5.850000	-0.149133	-86.955157	-48.943426	80.725086	-48.943426	80.725086	-0.149708	-87.480440
5.900000	-0.151331	-87.619659	-48.744864	79.018578	-48.744864	79.018578	-0.151925	-88.148357
5.950000	-0.153546	-88.283434	-48.549693	77.322176	-48.549693	77.322176	-0.154158	-88.815574
6.000000	-0.155813	-88.945026	-48.355742	75.656087	-48.355742	75.656087	-0.156440	-89.480692
6.050000	-0.158092	-89.606145	-48.165376	73.995322	-48.165376	73.995322	-0.158734	-90.145352
6.100000	-0.160429	-90.264899	-47.975904	72.361169	-47.975904	72.361169	-0.161083	-90.807727
6.150000	-0.162773	-90.923422	-47.790172	70.729168	-47.790172	70.729168	-0.163438	-91.469878
6.200000	-0.165181	-91.579405	-47.605048	69.120834	-47.605048	69.120834	-0.165856	-92.129565
6.250000	-0.167591	-92.235388	-47.423788	67.512500	-47.423788	67.512500	-0.168274	-92.789252
6.300000	-0.170072	-92.888663	-47.242885	65.925490	-47.242885	65.925490	-0.170762	-93.446308
6.350000	-0.172555	-93.541939	-47.065674	64.338480	-47.065674	64.338480	-0.173250	-94.103364
6.400000	-0.175104	-94.192790	-46.889137	62.767945	-46.889137	62.767945	-0.175803	-94.758060
6.450000	-0.177661	-94.843421	-46.715862	61.198907	-46.715862	61.198907	-0.178363	-95.412542
6.500000	-0.180280	-95.491899	-46.543540	59.642741	-46.543540	59.642741	-0.180984	-96.064926
6.550000	-0.182913	-96.139947	-46.374093	58.089149	-46.374093	58.089149	-0.183618	-96.716891
6.600000	-0.185603	-96.786105	-46.205842	56.545701	-46.205842	56.545701	-0.186307	-97.367012
6.650000	-0.188312	-97.431633	-46.040118	55.005636	-46.040118	55.005636	-0.189017	-98.016518
6.700000	-0.191075	-98.075523	-45.875798	53.473613	-45.875798	53.473613	-0.191777	-98.664426
6.750000	-0.193864	-98.718593	-45.713696	51.945612	-45.713696	51.945612	-0.194563	-99.311535
6.800000	-0.196700	-99.360267	-45.553177	50.423997	-45.553177	50.423997	-0.197396	-99.957280
6.850000	-0.199569	-100.000944	-45.394597	48.906944	-45.394597	48.906944	-0.200261	-100.602053
6.900000	-0.202480	-100.640457	-45.237750	47.394943	-45.237750	47.394943	-0.203168	-101.245688
6.950000	-0.205432	-101.278806	-45.082595	45.887992	-45.082595	45.887992	-0.206115	-101.888186
7.000000	-0.208419	-101.916213	-44.929298	44.384986	-44.929298	44.384986	-0.209096	-102.529764
7.050000	-0.211455	-102.552300	-44.777470	42.887500	-44.777470	42.887500	-0.212127	-103.170053
7.100000	-0.214520	-103.187657	-44.627603	41.393012	-44.627603	41.393012	-0.215186	-103.809626
7.150000	-0.217642	-103.821551	-44.479005	39.904520	-44.479005	39.904520	-0.218301	-104.447770
7.200000	-0.220786	-104.454914	-44.332451	38.418190	-44.332451	38.418190	-0.221440	-105.085395
7.250000	-0.223995	-105.086684	-44.186986	36.938347	-44.186986	36.938347	-0.224643	-105.721461
7.300000	-0.227219	-105.718112	-44.043631	35.459907	-44.043631	35.459907	-0.227862	-106.357193
7.350000	-0.230518	-106.347831	-43.901199	33.988474	-43.901199	33.988474	-0.231155	-106.991248
7.400000	-0.233824	-106.977384	-43.760930	32.517729	-43.760930	32.517729	-0.234456	-107.625143
7.450000	-0.237213	-107.605123	-43.621431	31.054547	-43.621431	31.054547	-0.237841	-108.257257
7.500000	-0.240603	-108.232862	-43.484137	29.591364	-43.484137	29.591364	-0.241227	-108.889372
7.550000	-0.244084	-108.858697	-43.347468	28.136334	-43.347468	28.136334	-0.244706	-109.519615
7.600000	-0.247567	-109.484532	-43.212916	26.681304	-43.212916	26.681304	-0.248187	-110.149858
7.650000	-0.251135	-110.108692	-43.079093	25.233700	-43.079093	25.233700	-0.251754	-110.778451
7.700000	-0.254711	-110.732699	-42.947183	23.786772	-42.947183	23.786772	-0.255331	-111.406894
7.750000	-0.258367	-111.355249	-42.816090	22.346580	-42.816090	22.346580	-0.258990	-112.033896
7.800000	-0.262040	-111.977507	-42.686717	20.907737	-42.686717	20.907737	-0.262666	-112.660610
7.850000	-0.265784	-112.598514	-42.558236	19.474962	-42.558236	19.474962	-0.266417	-113.286083
7.900000	-0.269555	-113.219103	-42.431295	18.044210	-42.431295	18.044210	-0.270194	-113.911141
7.950000	-0.273390	-113.838635	-42.305308	16.618866	-42.305308	16.618866	-0.274040	-114.535146
8.000000	-0.277260	-114.457637	-42.180690	15.196226	-42.180690	15.196226	-0.277921	-115.158623
8.050000	-0.281187	-115.075763	-42.057079	13.778333	-42.057079	13.778333	-0.281864	-115.781220
8.100000	-0.285157	-115.693263	-41.934670	12.363830	-41.934670	12.363830	-0.285852	-116.403190
8.150000	-0.289179	-116.310054	-41.813317	10.953408	-41.813317	10.953408	-0.289893	-117.024444
8.200000	-0.293251	-116.926137	-41.693000	9.547066	-41.693000	9.547066	-0.293990	-117.644982
8.250000	-0.297368	-117.541666	-41.573788	8.144130	-41.573788	8.144130	-0.298133	-118.264956
8.300000	-0.301545	-118.156419	-41.455444	6.745962	-41.455444	6.745962	-0.302340	-118.884138
8.350000	-0.305758	-118.770759	-41.338253	5.350519	-41.338253	5.350519	-0.306587	-119.502894
8.400000	-0.310040	-119.384273	-41.221759	3.960526	-41.221759	3.960526	-0.310909	-120.120798
8.450000	-0.314351	-119.997500	-41.106471	2.572570	-41.106471	2.572570	-0.315261	-120.738401
8.500000	-0.318741	-120.609865	-40.991699	1.190729	-40.991699	1.190729	-0.319700	-121.355104
8.550000	-0.323151	-121.222055	-40.878194	-0.189762	-40.878194	-0.189762	-0.324160	-121.971619
8.600000	-0.327650	-121.833367	-40.765016	-1.563498	-40.765016	-1.563498	-0.328718	-122.587197
8.650000	-0.332161	-122.444598	-40.653175	-2.936566	-40.653175	-2.936566	-0.333288	-123.202689
8.700000	-0.336771	-123.054950	-40.541458	-4.302274	-40.541458	-4.302274	-0.337969	-123.817223
8.750000	-0.341383	-123.665302	-40.431160	-5.667982	-40.431160	-5.667982	-0.342652	-124.431757
8.800000	-0.346106	-124.274793	-40.320770	-7.025773	-40.320770	-7.025773	-0.347458	-125.045325
8.850000	-0.350831	-124.884284	-40.211764	-8.383565	-40.211764	-8.383565	-0.352266	-125.658893
8.900000	-0.355659	-125.493077	-40.102693	-9.734236	-40.102693	-9.734236	-0.357190	-126.271648
8.950000	-0.360498	-126.101806	-39.994847	-11.084260	-39.994847	-11.084260	-0.362126	-126.884329
9.000000	-0.365432	-126.709985	-39.886969	-12.427970	-39.886969	-12.427970	-0.367170	-127.496338
9.050000	-0.370387	-127.318055	-39.780146	-13.770417	-39.780146	-13.770417	-0.372238	-128.108212
9.100000	-0.375428	-127.925707	-39.673335	-15.107359	-39.673335	-15.107359	-0.377404	-128.719541
9.150000	-0.380501	-128.533221	-39.567398	-16.442466	-39.567398	-16.442466	-0.382606	-129.330689
9.200000	-0.385652	-129.140435	-39.461529	-17.772868	-39.461529	-17.772868	-0.387898	-129.941406
9.250000	-0.390843	-129.747499	-39.356337	-19.100918	-39.356337	-19.100918	-0.393237	-130.551907
9.300000	-0.396104	-130.354364	-39.251285	-20.425048	-39.251285	-20.425048	-0.398657	-131.162078
9.350000	-0.401417	-130.961087	-39.146699	-21.746377	-39.146699	-21.746377	-0.404137	-131.772013
9.400000	-0.406790	-131.567695	-39.042340	-23.064541	-39.042340	-23.064541	-0.409687	-132.381706
9.450000	-0.412224	-132.174188	-38.938216	-24.379540	-38.938216	-24.379540	-0.415310	-132.991157
9.500000	-0.417710	-132.780632	-38.834428	-25.692087	-38.834428	-25.692087	-0.420994	-133.600439
9.550000	-0.423268	-133.387008	-38.730623	-27.001202	-38.730623	-27.001202	-0.426763	-134.209485
9.600000	-0.428869	-133.993383	-38.627283	-28.308526	-38.627283	-28.308526	-0.432583	-134.818424
9.650000	-0.434553	-134.599758	-38.523654	-29.612266	-38.523654	-29.612266	-0.438502	-135.427147
9.700000	-0.440270	-135.206162	-38.420643	-30.914807	-38.420643	-30.914807	-0.444460	-136.035810
9.750000	-0.446080	-135.812654	-38.317045	-32.213745	-38.317045	-32.213745	-0.450532	-136.644291
9.800000	-0.451914	-136.419185	-38.214242	-33.511990	-38.214242	-33.511990	-0.456633	-137.252746
9.850000	-0.457852	-137.025915	-38.110532	-34.806767	-38.110532	-34.806767	-0.462860	-137.861067
9.900000	-0.463805	-137.632675	-38.007821	-36.101257	-38.007821	-36.101257	-0.469105	-138.469381
9.950000	-0.469874	-138.239767	-37.903855	-37.392585	-37.903855	-37.392585	-0.475493	-139.077622
10.000000	-0.475946	-138.846859	-37.801119	-38.683913	-37.801119	-38.683913	-0.481885	-139.685863
