! freq	dB(S11)	phase(S11)	dB(S12)	phase(S12)	
!     	dB(S21)	phase(S21)	dB(S22)	phase(S22)	
!S-par simulation data
#  GHz  S  DB  R 50
0.000000	-163.628297	0.000000	-0.000000	0.000000	-0.000000	0.000000	-163.628297	180.000000
0.050000	-33.511219	-93.061461	-0.005161	-2.916881	-0.005161	-2.916881	-33.521750	-92.878732
0.100000	-27.504874	-96.114512	-0.016836	-5.802603	-0.016836	-5.802603	-27.507310	-95.795889
0.150000	-24.005578	-99.152234	-0.031404	-8.666454	-0.031404	-8.666454	-24.004164	-98.741451
0.200000	-21.537700	-102.168472	-0.048651	-11.518956	-0.048651	-11.518956	-21.539690	-101.662776
0.250000	-19.637444	-105.159969	-0.068948	-14.363581	-0.068948	-14.363581	-19.645674	-104.524612
0.300000	-18.098099	-108.124916	-0.092571	-17.199917	-0.092571	-17.199917	-18.110874	-107.331671
0.350000	-16.808452	-111.063959	-0.119489	-20.026922	-0.119489	-20.026922	-16.822810	-110.102907
0.400000	-15.702451	-113.977888	-0.149668	-22.843159	-0.149668	-22.843159	-15.715987	-112.851000
0.450000	-14.738084	-116.867183	-0.183125	-25.646723	-0.183125	-25.646723	-14.749318	-115.581953
0.500000	-13.885193	-119.734780	-0.219545	-28.437045	-0.219545	-28.437045	-13.893584	-118.299098
0.550000	-13.122991	-122.582236	-0.258763	-31.213120	-0.258763	-31.213120	-13.128544	-121.002802
0.600000	-12.436829	-125.410045	-0.300706	-33.973313	-0.300706	-33.973313	-12.439875	-123.691894
0.650000	-11.814496	-128.219996	-0.345089	-36.717380	-0.345089	-36.717380	-11.815534	-126.366031
0.700000	-11.246825	-131.013023	-0.391699	-39.444843	-0.391699	-39.444843	-11.246382	-129.024495
0.750000	-10.727076	-133.789100	-0.440399	-42.154619	-0.440399	-42.154619	-10.725660	-131.665949
0.800000	-10.249414	-136.548526	-0.490978	-44.846288	-0.490978	-44.846288	-10.247454	-134.289694
0.850000	-9.808931	-139.291553	-0.543220	-47.519717	-0.543220	-47.519717	-9.806752	-136.895350
0.900000	-9.401652	-142.018120	-0.596930	-50.174697	-0.596930	-50.174697	-9.399477	-139.482512
0.950000	-9.024299	-144.727949	-0.651925	-52.810991	-0.651925	-52.810991	-9.022252	-142.050783
1.000000	-8.674028	-147.420754	-0.708019	-55.428520	-0.708019	-55.428520	-8.672146	-144.599962
1.050000	-8.348381	-150.096205	-0.765032	-58.027290	-0.765032	-58.027290	-8.346626	-147.129960
1.100000	-8.045207	-152.753961	-0.822789	-60.607386	-0.822789	-60.607386	-8.043489	-149.640794
1.150000	-7.762601	-155.393702	-0.881120	-63.168969	-0.881120	-63.168969	-7.760803	-152.132577
1.200000	-7.498860	-158.015177	-0.939862	-65.712267	-0.939862	-65.712267	-7.496864	-154.605508
1.250000	-7.252445	-160.618257	-0.998858	-68.237576	-0.998858	-68.237576	-7.250159	-157.059864
1.300000	-7.022153	-163.202608	-1.057949	-70.744873	-1.057949	-70.744873	-7.019531	-159.495604
1.350000	-6.806497	-165.768951	-1.116995	-73.234958	-1.116995	-73.234958	-6.803562	-161.913543
1.400000	-6.604329	-168.317866	-1.175864	-75.708287	-1.175864	-75.708287	-6.601164	-164.314145
1.450000	-6.414624	-170.850154	-1.234427	-78.165358	-1.234427	-78.165358	-6.411355	-166.697920
1.500000	-6.236476	-173.366748	-1.292567	-80.606705	-1.292567	-80.606705	-6.233246	-169.065416
1.550000	-6.069092	-175.868598	-1.350171	-83.032892	-1.350171	-83.032892	-6.066028	-171.417216
1.600000	-5.911770	-178.356580	-1.407136	-85.444512	-1.407136	-85.444512	-5.908966	-173.753928
1.650000	-5.763886	179.168555	-1.463367	-87.842179	-1.463367	-87.842179	-5.761385	-176.076185
1.700000	-5.625483	176.707355	-1.518652	-90.225276	-1.518652	-90.225276	-5.623282	-178.383344
1.750000	-5.494845	174.257007	-1.573134	-92.596883	-1.573134	-92.596883	-5.492906	179.321411
1.800000	-5.372046	171.818113	-1.626637	-94.956488	-1.626637	-94.956488	-5.370307	177.038616
1.850000	-5.256619	169.390195	-1.679094	-97.304756	-1.679094	-97.304756	-5.255008	174.767592
1.900000	-5.148126	166.972762	-1.730445	-99.642356	-1.730445	-99.642356	-5.146568	172.507654
1.950000	-5.046155	164.565299	-1.780636	-101.969957	-1.780636	-101.969957	-5.044579	170.258120
2.000000	-4.950320	162.167263	-1.829620	-104.288229	-1.829620	-104.288229	-4.948664	168.018305
2.050000	-4.860260	159.778084	-1.877355	-106.597837	-1.877355	-106.597837	-4.858476	165.787534
2.100000	-4.775637	157.397173	-1.923807	-108.899443	-1.923807	-108.899443	-4.773689	163.565132
2.150000	-4.696139	155.023926	-1.968944	-111.193699	-1.968944	-111.193699	-4.694002	161.350436
2.200000	-4.621473	152.657731	-2.012742	-113.481252	-2.012742	-113.481252	-4.619135	159.142790
2.250000	-4.551368	150.297973	-2.055182	-115.762736	-2.055182	-115.762736	-4.548828	156.941547
2.300000	-4.485572	147.944043	-2.096249	-118.038776	-2.096249	-118.038776	-4.482836	154.746075
2.350000	-4.423848	145.595336	-2.135931	-120.309982	-2.135931	-120.309982	-4.420931	152.555751
2.400000	-4.365979	143.251261	-2.174223	-122.576953	-2.174223	-122.576953	-4.362901	150.369966
2.450000	-4.311761	140.911242	-2.211122	-124.840272	-2.211122	-124.840272	-4.308545	148.188124
2.500000	-4.261001	138.574717	-2.246631	-127.100510	-2.246631	-127.100510	-4.257677	146.009644
2.550000	-4.213648	136.241250	-2.280690	-129.358134	-2.280690	-129.358134	-4.210245	143.834054
2.600000	-4.169398	133.910172	-2.313375	-131.613813	-2.313375	-131.613813	-4.165946	141.660659
2.650000	-4.128096	131.580988	-2.344697	-133.868065	-2.344697	-133.868065	-4.124625	139.488924
2.700000	-4.089595	129.253224	-2.374673	-136.121391	-2.374673	-136.121391	-4.086134	137.318329
2.750000	-4.053759	126.926433	-2.403321	-138.374275	-2.403321	-138.374275	-4.050334	135.148371
2.800000	-4.020456	124.600190	-2.430661	-140.627181	-2.430661	-140.627181	-4.017094	132.978561
2.850000	-3.989564	122.274096	-2.456717	-142.880559	-2.456717	-142.880559	-3.986286	130.808427
2.900000	-3.960967	119.947774	-2.481514	-145.134837	-2.481514	-145.134837	-3.957793	128.637512
2.950000	-3.934553	117.620873	-2.505080	-147.390427	-2.505080	-147.390427	-3.931501	126.465373
3.000000	-3.910217	115.293068	-2.527443	-149.647721	-2.527443	-149.647721	-3.907300	124.291586
3.050000	-3.887859	112.964056	-2.548637	-151.907095	-2.548637	-151.907095	-3.885088	122.115739
3.100000	-3.867381	110.633559	-2.568692	-154.168904	-2.568692	-154.168904	-3.864764	119.937437
3.150000	-3.848691	108.301323	-2.587644	-156.433486	-2.587644	-156.433486	-3.846234	117.756301
3.200000	-3.831701	105.967117	-2.605528	-158.701160	-2.605528	-158.701160	-3.829406	115.571965
3.250000	-3.816324	103.630734	-2.622382	-160.972227	-2.622382	-160.972227	-3.814191	113.384080
3.300000	-3.802477	101.291988	-2.638242	-163.246969	-2.638242	-163.246969	-3.800505	111.192311
3.350000	-3.790081	98.950717	-2.653149	-165.525651	-2.653149	-165.525651	-3.788265	108.996339
3.400000	-3.779056	96.606777	-2.667142	-167.808518	-2.667142	-167.808518	-3.777392	106.795858
3.450000	-3.769328	94.260049	-2.680261	-170.095799	-2.680261	-170.095799	-3.767810	104.590577
3.500000	-3.760822	91.910432	-2.692547	-172.387705	-2.692547	-172.387705	-3.759443	102.380221
3.550000	-3.753467	89.557844	-2.704042	-174.684428	-2.704042	-174.684428	-3.752220	100.164528
3.600000	-3.747192	87.202224	-2.714787	-176.986143	-2.714787	-176.986143	-3.746070	97.943252
3.650000	-3.741930	84.843527	-2.724825	-179.293010	-2.724825	-179.293010	-3.740925	95.716159
3.700000	-3.737613	82.481728	-2.734197	178.394831	-2.734197	178.394831	-3.736718	93.483031
3.750000	-3.734176	80.116817	-2.742946	176.077255	-2.742946	176.077255	-3.733385	91.243665
3.800000	-3.731588	77.748666	-2.751090	173.753909	-2.751090	173.753909	-3.730895	88.997583
3.850000	-3.729749	75.377435	-2.758698	171.424937	-2.758698	171.424937	-3.729149	86.744883
3.900000	-3.728597	73.003160	-2.765811	169.090265	-2.765811	169.090265	-3.728087	84.485407
3.950000	-3.728074	70.625895	-2.772471	166.749833	-2.772471	166.749833	-3.727651	82.219011
4.000000	-3.728122	68.245701	-2.778718	164.403596	-2.778718	164.403596	-3.727786	79.945564
4.050000	-3.728684	65.862655	-2.784592	162.051524	-2.784592	162.051524	-3.728434	77.664952
4.100000	-3.729707	63.476842	-2.790132	159.693599	-2.790132	159.693599	-3.729544	75.377074
4.150000	-3.731137	61.088357	-2.795377	157.329817	-2.795377	157.329817	-3.731063	73.081842
4.200000	-3.732922	58.697305	-2.800365	154.960187	-2.800365	154.960187	-3.732941	70.779186
4.250000	-3.735014	56.303796	-2.805132	152.584729	-2.805132	152.584729	-3.735128	68.469046
4.300000	-3.737364	53.907949	-2.809715	150.203476	-2.809715	150.203476	-3.737578	66.151379
4.350000	-3.739927	51.509885	-2.814147	147.816469	-2.814147	147.816469	-3.740245	63.826154
4.400000	-3.742658	49.109730	-2.818465	145.423760	-2.818465	145.423760	-3.743085	61.493355
4.450000	-3.745515	46.707613	-2.822700	143.025410	-2.822700	143.025410	-3.746055	59.152975
4.500000	-3.748458	44.303662	-2.826884	140.621487	-2.826884	140.621487	-3.749116	56.805023
4.550000	-3.751449	41.898005	-2.831050	138.212065	-2.831050	138.212065	-3.752228	54.449517
4.600000	-3.754451	39.490766	-2.835226	135.797224	-2.835226	135.797224	-3.755353	52.086485
4.650000	-3.757429	37.082066	-2.839442	133.377047	-2.839442	133.377047	-3.758458	49.715963
4.700000	-3.760350	34.672014	-2.843728	130.951618	-2.843728	130.951618	-3.761507	47.337994
4.750000	-3.763184	32.260711	-2.848111	128.521022	-2.848111	128.521022	-3.764469	44.952626
4.800000	-3.765900	29.848244	-2.852619	126.085339	-2.852619	126.085339	-3.767311	42.559907
4.850000	-3.768470	27.434678	-2.857280	123.644645	-2.857280	123.644645	-3.770003	40.159883
4.900000	-3.770866	25.020057	-2.862125	121.199005	-2.862125	121.199005	-3.772517	37.752592
4.950000	-3.773058	22.604391	-2.867182	118.748469	-2.867182	118.748469	-3.774821	35.338059
5.000000	-3.775020	20.187651	-2.872486	116.293066	-2.872486	116.293066	-3.776885	32.916287
5.050000	-3.776656	17.769473	-2.878141	113.831732	-2.878141	113.831732	-3.778611	30.485649
5.100000	-3.778025	15.350089	-2.884094	111.366194	-2.884094	111.366194	-3.780059	28.048703
5.150000	-3.779109	12.929354	-2.890372	108.896390	-2.890372	108.896390	-3.781209	25.605352
5.200000	-3.779787	10.506580	-2.897119	106.421022	-2.897119	106.421022	-3.781935	23.153633
5.250000	-3.779929	8.080682	-2.904514	103.939241	-2.904514	103.939241	-3.782103	20.692241
5.300000	-3.779600	5.651632	-2.912506	101.452329	-2.912506	101.452329	-3.781778	18.223060
5.350000	-3.778755	3.218923	-2.921166	98.960030	-2.921166	98.960030	-3.780915	15.745668
5.400000	-3.776876	0.777654	-2.931243	96.457977	-2.931243	96.457977	-3.778974	13.253096
5.450000	-3.773966	-1.673794	-2.942871	93.947124	-2.942871	93.947124	-3.775956	10.746109
5.500000	-3.769901	-4.138006	-2.956383	91.426820	-2.956383	91.426820	-3.771731	8.222747
5.550000	-3.764173	-6.622171	-2.972774	88.893380	-2.972774	88.893380	-3.765762	5.675548
5.600000	-3.755826	-9.145782	-2.994687	86.340220	-2.994687	86.340220	-3.757014	3.085896
5.650000	-3.744138	-11.735415	-3.025777	83.762170	-3.025777	83.762170	-3.744642	0.428663
5.700000	-3.728860	-14.449011	-3.074149	81.156182	-3.074149	81.156182	-3.728091	-2.351631
5.750000	-3.714944	-17.459056	-3.164393	78.549095	-3.164393	78.549095	-3.711212	-5.422949
5.800000	-3.757105	-21.203693	-3.360277	76.286822	-3.360277	76.286822	-3.744573	-9.220527
5.850000	-4.240951	-25.051258	-3.548638	76.774452	-3.548638	76.774452	-4.202709	-13.222211
5.900000	-4.487898	-23.434703	-3.014989	75.462034	-3.014989	75.462034	-4.464262	-11.917555
5.950000	-4.249749	-24.606727	-2.867881	71.619412	-2.867881	71.619412	-4.242461	-13.165263
6.000000	-4.129052	-26.898192	-2.857784	68.423986	-2.857784	68.423986	-4.126555	-15.527440
6.050000	-4.070639	-29.338309	-2.866919	65.564465	-2.866919	65.564465	-4.069852	-18.052726
6.100000	-4.039785	-31.788354	-2.877633	62.853205	-2.877633	62.853205	-4.039732	-20.597016
6.150000	-4.023724	-34.228030	-2.887027	60.219637	-2.887027	60.219637	-4.024001	-23.136899
6.200000	-4.016074	-36.656525	-2.894775	57.627848	-2.894775	57.627848	-4.016498	-25.669460
6.250000	-4.013838	-39.076127	-2.901029	55.060656	-2.901029	55.060656	-4.014318	-28.195736
6.300000	-4.015588	-41.488846	-2.905927	52.509415	-2.905927	52.509415	-4.016072	-30.716970
6.350000	-4.020502	-43.896386	-2.909580	49.968835	-2.909580	49.968835	-4.020958	-33.234270
6.400000	-4.028093	-46.300133	-2.912064	47.435482	-2.912064	47.435482	-4.028504	-35.748531
6.450000	-4.038089	-48.701220	-2.913419	44.907023	-2.913419	44.907023	-4.038444	-38.260451
6.500000	-4.050549	-51.100527	-2.913549	42.381939	-2.913549	42.381939	-4.050843	-40.770467
6.550000	-4.065154	-53.499127	-2.912577	39.858537	-2.912577	39.858537	-4.065382	-43.279265
6.600000	-4.081889	-55.897746	-2.910487	37.335838	-2.910487	37.335838	-4.082050	-45.787229
6.650000	-4.100778	-58.297062	-2.907254	34.813015	-2.907254	34.813015	-4.100869	-48.294702
6.700000	-4.122005	-60.697836	-2.902775	32.289239	-2.902775	32.289239	-4.122022	-50.802020
6.750000	-4.145492	-63.100622	-2.897094	29.763874	-2.897094	29.763874	-4.145430	-53.309520
6.800000	-4.171401	-65.506106	-2.890131	27.236227	-2.890131	27.236227	-4.171252	-55.817527
6.850000	-4.199849	-67.914947	-2.881838	24.705634	-2.881838	24.705634	-4.199603	-58.326385
6.900000	-4.230970	-70.327813	-2.872163	22.171429	-2.872163	22.171429	-4.230614	-60.836455
6.950000	-4.264914	-72.745394	-2.861052	19.632929	-2.861052	19.632929	-4.264428	-63.348120
7.000000	-4.301845	-75.168403	-2.848449	17.089427	-2.848449	17.089427	-4.301208	-65.861793
7.050000	-4.341946	-77.597581	-2.834299	14.540184	-2.834299	14.540184	-4.341130	-68.377914
7.100000	-4.385415	-80.033700	-2.818545	11.984420	-2.818545	11.984420	-4.384389	-70.896962
7.150000	-4.432470	-82.477572	-2.801129	9.421309	-2.801129	9.421309	-4.431195	-73.419448
7.200000	-4.483349	-84.930046	-2.781997	6.849976	-2.781997	6.849976	-4.481781	-75.945925
7.250000	-4.538310	-87.392014	-2.761093	4.269485	-2.761093	4.269485	-4.536400	-78.476986
7.300000	-4.597637	-89.864413	-2.738362	1.678839	-2.738362	1.678839	-4.595330	-81.013267
7.350000	-4.661642	-92.348232	-2.713753	-0.923028	-2.713753	-0.923028	-4.658876	-83.555445
7.400000	-4.730669	-94.844508	-2.687215	-3.537258	-2.687215	-3.537258	-4.727374	-86.104242
7.450000	-4.805093	-97.354335	-2.658701	-6.165075	-2.658701	-6.165075	-4.801196	-88.660426
7.500000	-4.885332	-99.878862	-2.628166	-8.807793	-2.628166	-8.807793	-4.880752	-91.224805
7.550000	-4.972106	-102.420050	-2.595473	-11.467602	-2.595473	-11.467602	-4.966753	-93.798667
7.600000	-5.065713	-104.978537	-2.560678	-14.145388	-2.560678	-14.145388	-5.059492	-96.382550
7.650000	-5.166736	-107.555663	-2.523752	-16.842802	-2.523752	-16.842802	-5.159547	-98.977384
7.700000	-5.275828	-110.152826	-2.484668	-19.561623	-2.484668	-19.561623	-5.267565	-101.584126
7.750000	-5.393728	-112.771485	-2.443411	-22.303776	-2.443411	-22.303776	-5.384277	-104.203752
7.800000	-5.521271	-115.413153	-2.399972	-25.071343	-2.399972	-25.071343	-5.510514	-106.837242
7.850000	-5.659411	-118.079388	-2.354350	-27.866579	-2.354350	-27.866579	-5.647219	-109.485564
7.900000	-5.809236	-120.771785	-2.306558	-30.691936	-2.306558	-30.691936	-5.795474	-112.149648
7.950000	-5.972000	-123.491953	-2.256622	-33.550085	-2.256622	-33.550085	-5.956523	-114.830351
8.000000	-6.149157	-126.241489	-2.204582	-36.443939	-2.204582	-36.443939	-6.131807	-117.528410
8.050000	-6.342398	-129.021935	-2.150498	-39.376690	-2.150498	-39.376690	-6.323003	-120.244376
8.100000	-6.553710	-131.834719	-2.094450	-42.351841	-2.094450	-42.351841	-6.532077	-122.978517
8.150000	-6.783303	-134.676552	-2.036822	-45.366663	-2.036822	-45.366663	-6.759228	-125.728415
8.200000	-7.038200	-137.557659	-1.977158	-48.438563	-1.977158	-48.438563	-7.011415	-128.498256
8.250000	-7.319699	-140.473653	-1.915951	-51.565776	-1.915951	-51.565776	-7.289900	-131.283865
8.300000	-7.631908	-143.424054	-1.853425	-54.753593	-1.853425	-54.753593	-7.598721	-134.082349
8.350000	-7.979631	-146.406809	-1.789871	-58.007234	-1.789871	-58.007234	-7.942582	-136.888915
8.400000	-8.369268	-149.418494	-1.725626	-61.333689	-1.725626	-61.333689	-8.327737	-139.696233
8.450000	-8.809017	-152.452496	-1.661123	-64.741090	-1.661123	-64.741090	-8.762158	-142.492503
8.500000	-9.309892	-155.496825	-1.596930	-68.239769	-1.596930	-68.239769	-9.256501	-145.258272
8.550000	-9.884600	-158.530847	-1.533764	-71.837348	-1.533764	-71.837348	-9.822933	-147.964725
8.600000	-10.551262	-161.520956	-1.472509	-75.544960	-1.472509	-75.544960	-10.478660	-150.565492
8.650000	-11.334886	-164.410049	-1.414290	-79.375428	-1.414290	-79.375428	-11.247092	-152.984809
8.700000	-12.271109	-167.098160	-1.360548	-83.343581	-1.360548	-83.343581	-12.160899	-155.094356
8.750000	-13.412657	-169.402004	-1.313145	-87.466633	-1.313145	-87.466633	-13.266844	-156.666167
8.800000	-14.844785	-170.913184	-1.274907	-91.771414	-1.274907	-91.771414	-14.636156	-157.208460
8.850000	-16.693858	-170.798662	-1.248895	-96.276174	-1.248895	-96.276174	-16.361104	-155.781872
8.900000	-19.153350	-166.906125	-1.239466	-101.008389	-1.239466	-101.008389	-18.537688	-150.189021
8.950000	-22.302485	-153.065223	-1.252474	-105.999749	-1.252474	-105.999749	-20.993399	-135.446458
9.000000	-24.359083	-118.503918	-1.295438	-111.282720	-1.295438	-111.282720	-22.184364	-106.722566
9.050000	-21.530533	-83.515536	-1.380364	-116.906994	-1.380364	-116.906994	-20.042552	-78.502679
9.100000	-17.478697	-71.023071	-1.522657	-122.914153	-1.522657	-122.914153	-16.683021	-65.642466
9.150000	-14.162112	-69.330047	-1.743209	-129.340935	-1.743209	-129.340935	-13.667467	-62.427336
9.200000	-11.497362	-72.276168	-2.071031	-136.212840	-2.071031	-136.212840	-11.139879	-64.016092
9.250000	-9.300335	-77.790355	-2.548436	-143.531810	-2.548436	-143.531810	-9.012017	-68.382958
9.300000	-7.464479	-85.027881	-3.231755	-151.229246	-3.231755	-151.229246	-7.213382	-74.608063
9.350000	-5.935270	-93.573945	-4.197177	-159.117000	-4.197177	-159.117000	-5.704564	-82.216902
9.400000	-4.689816	-103.156379	-5.552867	-166.781202	-5.552867	-166.781202	-4.469763	-90.897404
9.450000	-3.719418	-113.493961	-7.446110	-173.360469	-7.446110	-173.360469	-3.504029	-100.339998
9.500000	-3.019016	-124.285267	-10.087756	-176.879433	-10.087756	-176.879433	-2.804328	-110.222391
9.550000	-2.573227	-135.207677	-13.671474	-172.119550	-13.671474	-172.119550	-2.356453	-120.205947
9.600000	-2.356301	-145.972286	-17.064249	-146.542991	-17.064249	-146.542991	-2.135314	-129.988955
9.650000	-2.331379	-156.366976	-15.869215	-111.224584	-15.869215	-111.224584	-2.104525	-139.349334
9.700000	-2.460955	-166.266279	-12.560623	-97.867929	-12.560623	-97.867929	-2.226976	-148.152277
9.750000	-2.709240	-175.625005	-9.977836	-96.679275	-9.977836	-96.679275	-2.467312	-156.343182
9.800000	-3.045670	175.543968	-8.130438	-99.685578	-8.130438	-99.685578	-2.795362	-163.923916
9.850000	-3.445060	167.176824	-6.775066	-104.218854	-6.775066	-104.218854	-3.185890	-170.949039
9.900000	-3.891544	159.221511	-5.754030	-109.358347	-5.754030	-109.358347	-3.621638	-177.462321
9.950000	-4.369778	151.657448	-4.969155	-114.700681	-4.969155	-114.700681	-4.087502	176.482900
10.000000	-4.850291	144.339521	-4.358290	-120.006883	-4.358290	-120.006883	-4.568726	170.821334
