! freq	dB(S11)	phase(S11)	dB(S12)	phase(S12)	
!     	dB(S21)	phase(S21)	dB(S22)	phase(S22)	
!S-par simulation data
#  GHz  S  DB  R 50
0.000000	-0.000000	0.000000	-410.580685	0.000000	-410.580685	0.000000	-0.000000	0.000000
0.050000	-0.000366	-0.773308	-79.444740	128.356173	-79.444740	128.356173	-0.000128	-0.826294
0.100000	-0.001312	-1.544340	-76.486947	151.421982	-76.486947	151.421982	-0.000501	-1.652250
0.150000	-0.002558	-2.311973	-75.807083	164.700102	-75.807083	164.700102	-0.001110	-2.477515
0.200000	-0.003849	-3.076765	-75.719215	173.657245	-75.719215	173.657245	-0.001913	-3.301876
0.250000	-0.005071	-3.839495	-75.883844	-179.720922	-75.883844	-179.720922	-0.002876	-4.125150
0.300000	-0.006200	-4.600932	-76.182721	-174.472209	-76.182721	-174.472209	-0.003956	-4.947322
0.350000	-0.007234	-5.361416	-76.580291	-170.295806	-76.580291	-170.295806	-0.005131	-5.768217
0.400000	-0.008184	-6.121128	-77.054587	-167.104036	-77.054587	-167.104036	-0.006375	-6.587462
0.450000	-0.009118	-6.880683	-77.565616	-164.115330	-77.565616	-164.115330	-0.007631	-7.406327
0.500000	-0.010005	-7.639549	-78.130215	-162.009043	-78.130215	-162.009043	-0.008908	-8.223327
0.550000	-0.010889	-8.398210	-78.730828	-160.117868	-78.730828	-160.117868	-0.010180	-9.039823
0.600000	-0.011766	-9.156357	-79.367325	-158.764476	-79.367325	-158.764476	-0.011436	-9.855059
0.650000	-0.012648	-9.914109	-80.037611	-157.733009	-80.037611	-157.733009	-0.012672	-10.669528
0.700000	-0.013534	-10.671466	-80.746005	-157.023467	-80.746005	-157.023467	-0.013887	-11.483229
0.750000	-0.014432	-11.428197	-81.482554	-156.738255	-81.482554	-156.738255	-0.015069	-12.295960
0.800000	-0.015335	-12.184678	-82.272173	-156.622775	-82.272173	-156.622775	-0.016237	-13.108303
0.850000	-0.016255	-12.940269	-83.083583	-157.065959	-83.083583	-157.065959	-0.017365	-13.919494
0.900000	-0.017178	-13.695646	-83.964171	-157.649924	-83.964171	-157.649924	-0.018484	-14.730429
0.950000	-0.018115	-14.450143	-84.879722	-158.820719	-84.879722	-158.820719	-0.019571	-15.540355
1.000000	-0.019056	-15.204254	-85.873448	-160.310542	-85.873448	-160.310542	-0.020648	-16.349869
1.050000	-0.020005	-15.957670	-86.934955	-162.374613	-86.934955	-162.374613	-0.021706	-17.158642
1.100000	-0.020960	-16.710442	-88.079605	-165.210246	-88.079605	-165.210246	-0.022751	-17.966752
1.150000	-0.021918	-17.462730	-89.342081	-168.624549	-89.342081	-168.624549	-0.023788	-18.774365
1.200000	-0.022881	-18.214100	-90.672558	-173.885906	-90.672558	-173.885906	-0.024813	-19.581046
1.250000	-0.023844	-18.965221	-92.196774	-179.651005	-92.196774	-179.651005	-0.025835	-20.387472
1.300000	-0.024811	-19.715139	-93.630553	170.142634	-93.630553	170.142634	-0.026848	-21.192671
1.350000	-0.025778	-20.464792	-95.151823	158.504084	-95.151823	158.504084	-0.027860	-21.997596
1.400000	-0.026746	-21.213475	-96.156535	141.614177	-96.156535	141.614177	-0.028868	-22.801519
1.450000	-0.027713	-21.961615	-96.597691	124.021152	-96.597691	124.021152	-0.029875	-23.604872
1.500000	-0.028681	-22.709032	-96.170175	105.490637	-96.170175	105.490637	-0.030882	-24.407466
1.550000	-0.029648	-23.455615	-95.127855	90.845421	-95.127855	90.845421	-0.031890	-25.209169
1.600000	-0.030614	-24.201735	-93.897006	78.358707	-93.897006	78.358707	-0.032898	-26.010379
1.650000	-0.031579	-24.946717	-92.565628	70.195278	-92.565628	70.195278	-0.033910	-26.810354
1.700000	-0.032545	-25.691413	-91.368982	62.936051	-91.368982	62.936051	-0.034922	-27.610016
1.750000	-0.033509	-26.434847	-90.247480	58.064306	-90.247480	58.064306	-0.035939	-28.408290
1.800000	-0.034473	-27.177883	-89.249080	53.557517	-89.249080	53.557517	-0.036957	-29.206122
1.850000	-0.035436	-27.919926	-88.341797	49.963116	-88.341797	49.963116	-0.037980	-30.002848
1.900000	-0.036400	-28.661256	-87.520228	46.701657	-87.520228	46.701657	-0.039006	-30.798773
1.950000	-0.037363	-29.401875	-86.769555	43.773141	-86.769555	43.773141	-0.040035	-31.593899
2.000000	-0.038328	-30.141454	-86.081751	41.099547	-86.081751	41.099547	-0.041070	-32.387847
2.050000	-0.039293	-30.880616	-85.445599	38.527922	-85.445599	38.527922	-0.042107	-33.181323
2.100000	-0.040260	-31.618393	-84.857418	36.129331	-84.857418	36.129331	-0.043151	-33.973224
2.150000	-0.041228	-32.355847	-84.307494	33.756028	-84.307494	33.756028	-0.044197	-34.764755
2.200000	-0.042198	-33.091994	-83.793784	31.454586	-83.793784	31.454586	-0.045251	-35.554793
2.250000	-0.043170	-33.827584	-83.309787	29.159236	-83.309787	29.159236	-0.046307	-36.344194
2.300000	-0.044146	-34.562172	-82.853085	26.874850	-82.853085	26.874850	-0.047369	-37.132449
2.350000	-0.045124	-35.295851	-82.419926	24.573340	-82.419926	24.573340	-0.048437	-37.919662
2.400000	-0.046105	-36.028848	-82.007864	22.258987	-82.007864	22.258987	-0.049508	-38.706093
2.450000	-0.047092	-36.760567	-81.614150	19.893062	-81.614150	19.893062	-0.050587	-39.491062
2.500000	-0.048081	-37.491939	-81.237428	17.513072	-81.237428	17.513072	-0.051668	-40.275632
2.550000	-0.049077	-38.221653	-80.874200	15.038465	-80.874200	15.038465	-0.052760	-41.058305
2.600000	-0.050076	-38.951005	-80.524650	12.538231	-80.524650	12.538231	-0.053854	-41.840565
2.650000	-0.051083	-39.679030	-80.185433	9.944036	-80.185433	9.944036	-0.054956	-42.621309
2.700000	-0.052094	-40.406317	-79.856240	7.288946	-79.856240	7.288946	-0.056064	-43.401212
2.750000	-0.053111	-41.132622	-79.535562	4.552662	-79.535562	4.552662	-0.057178	-44.179996
2.800000	-0.054136	-41.857802	-79.220677	1.711627	-79.220677	1.711627	-0.058300	-44.957500
2.850000	-0.055166	-42.582357	-78.913792	-1.187605	-78.913792	-1.187605	-0.059427	-45.734294
2.900000	-0.056207	-43.305388	-78.607577	-4.243267	-78.607577	-4.243267	-0.060565	-46.509360
2.950000	-0.057251	-44.028036	-78.309143	-7.339338	-78.309143	-7.339338	-0.061706	-47.283992
3.000000	-0.058308	-44.749008	-78.007195	-10.621772	-78.007195	-10.621772	-0.062860	-48.056729
3.050000	-0.059370	-45.469456	-77.710117	-13.966251	-77.710117	-13.966251	-0.064019	-48.828877
3.100000	-0.060443	-46.188597	-77.410121	-17.465842	-77.410121	-17.465842	-0.065189	-49.599550
3.150000	-0.061525	-46.906810	-77.108983	-21.081035	-77.108983	-21.081035	-0.066367	-50.369182
3.200000	-0.062614	-47.624096	-76.807160	-24.811831	-76.807160	-24.811831	-0.067553	-51.137772
3.250000	-0.063717	-48.340040	-76.496571	-28.715448	-76.496571	-28.715448	-0.068751	-51.904860
3.300000	-0.064825	-49.055447	-76.189411	-32.688195	-76.189411	-32.688195	-0.069955	-52.671347
3.350000	-0.065951	-49.769091	-75.864189	-36.891570	-75.864189	-36.891570	-0.071175	-53.435866
3.400000	-0.067081	-50.482326	-75.543409	-41.148322	-75.543409	-41.148322	-0.072400	-54.199929
3.450000	-0.068228	-51.193916	-75.204118	-45.618891	-75.204118	-45.618891	-0.073642	-54.962162
3.500000	-0.069383	-51.904815	-74.863213	-50.176742	-74.863213	-50.176742	-0.074892	-55.723628
3.550000	-0.070551	-52.614468	-74.510332	-54.891699	-74.510332	-54.891699	-0.076155	-56.483713
3.600000	-0.071733	-53.323006	-74.146446	-59.739649	-74.146446	-59.739649	-0.077431	-57.242564
3.650000	-0.072924	-54.030707	-73.779383	-64.687344	-73.779383	-64.687344	-0.078717	-58.000491
3.700000	-0.074134	-54.736863	-73.391681	-69.803605	-73.391681	-69.803605	-0.080020	-58.756713
3.750000	-0.075348	-55.442598	-73.011288	-74.965839	-73.011288	-74.965839	-0.081329	-59.512470
3.800000	-0.076588	-56.146352	-72.601505	-80.318362	-72.601505	-80.318362	-0.082662	-60.266051
3.850000	-0.077833	-56.849680	-72.200430	-85.705335	-72.200430	-85.705335	-0.084000	-61.019163
3.900000	-0.079098	-57.551444	-71.782916	-91.218631	-71.782916	-91.218631	-0.085358	-61.770561
3.950000	-0.080375	-58.252351	-71.366786	-96.786286	-71.366786	-96.786286	-0.086725	-62.521023
4.000000	-0.081668	-58.952115	-70.947105	-102.426420	-70.947105	-102.426420	-0.088105	-63.270237
4.050000	-0.082979	-59.650588	-70.524018	-108.123907	-70.524018	-108.123907	-0.089494	-64.018071
4.100000	-0.084299	-60.348344	-70.108542	-113.853257	-70.108542	-113.853257	-0.090889	-64.765138
4.150000	-0.085645	-61.044374	-69.688174	-119.624234	-69.688174	-119.624234	-0.092295	-65.510607
4.200000	-0.086998	-61.739972	-69.281964	-125.402556	-69.281964	-125.402556	-0.093713	-66.255670
4.250000	-0.088379	-62.433697	-68.875779	-131.186178	-68.875779	-131.186178	-0.095267	-66.998917
4.300000	-0.089769	-63.126844	-68.484369	-136.958934	-68.484369	-136.958934	-0.096829	-67.741328
4.350000	-0.091181	-63.818549	-68.101767	-142.704522	-68.101767	-142.704522	-0.098410	-68.481647
4.400000	-0.092611	-64.509242	-67.733229	-148.409784	-67.733229	-148.409784	-0.099986	-69.220899
4.450000	-0.094057	-65.198925	-67.377696	-154.074722	-67.377696	-154.074722	-0.101556	-69.959084
4.500000	-0.095527	-65.887164	-67.037468	-159.654248	-67.037468	-159.654248	-0.103147	-70.695782
4.550000	-0.097008	-66.574826	-66.710575	-165.199610	-66.710575	-165.199610	-0.104746	-71.431885
4.600000	-0.098521	-67.260613	-66.401022	-170.603676	-66.401022	-170.603676	-0.106381	-72.166026
4.650000	-0.100042	-67.945968	-66.103713	-175.971690	-66.103713	-175.971690	-0.108024	-72.899714
4.700000	-0.101595	-68.629597	-65.823109	178.811396	-65.823109	178.811396	-0.109702	-73.631585
4.750000	-0.103162	-69.312508	-65.554388	173.662616	-65.554388	173.662616	-0.111395	-74.362701
4.800000	-0.104753	-69.994127	-65.299151	168.636477	-65.299151	168.636477	-0.113116	-75.092458
4.850000	-0.106367	-70.674602	-65.055655	163.722113	-65.055655	163.722113	-0.114862	-75.821013
4.900000	-0.107998	-71.354219	-64.822050	158.891580	-64.822050	158.891580	-0.116627	-76.548668
4.950000	-0.109661	-72.032269	-64.599334	154.211656	-64.599334	154.211656	-0.118428	-77.274683
5.000000	-0.111333	-72.709892	-64.383454	149.572807	-64.383454	149.572807	-0.120239	-78.000251
5.050000	-0.113047	-73.385531	-64.176728	145.114470	-64.176728	145.114470	-0.122097	-78.723749
5.100000	-0.114771	-74.060747	-63.975165	140.691233	-63.975165	140.691233	-0.123965	-79.446809
5.150000	-0.116529	-74.734414	-63.779460	136.396694	-63.779460	136.396694	-0.125872	-80.168259
5.200000	-0.118306	-75.407240	-63.587817	132.163511	-63.587817	132.163511	-0.127801	-80.888841
5.250000	-0.120109	-76.078946	-63.399984	128.012138	-63.399984	128.012138	-0.129758	-81.608265
5.300000	-0.121942	-76.749402	-63.214423	123.937898	-63.214423	123.937898	-0.131748	-82.326402
5.350000	-0.123791	-77.419163	-63.031816	119.906509	-63.031816	119.906509	-0.133757	-83.043825
5.400000	-0.125682	-78.087270	-62.849134	115.956807	-62.849134	115.956807	-0.135812	-83.759555
5.450000	-0.127583	-78.754964	-62.669148	112.025710	-62.669148	112.025710	-0.137878	-84.474864
5.500000	-0.129530	-79.420882	-62.487205	108.159483	-62.487205	108.159483	-0.139995	-85.188365
5.550000	-0.131491	-80.086259	-62.306849	104.305867	-62.306849	104.305867	-0.142127	-85.901319
5.600000	-0.133488	-80.750283	-62.124904	100.483783	-62.124904	100.483783	-0.144300	-86.612903
5.650000	-0.135512	-81.413369	-61.942385	96.670921	-61.942385	96.670921	-0.146501	-87.323546
5.700000	-0.137562	-82.075518	-61.759404	92.867281	-61.759404	92.867281	-0.148731	-88.033246
5.750000	-0.139649	-82.736342	-61.573426	89.058598	-61.573426	89.058598	-0.151003	-88.741625
5.800000	-0.141753	-83.396637	-61.388695	85.247898	-61.388695	85.247898	-0.153292	-89.449475
5.850000	-0.143907	-84.055231	-61.198423	81.407238	-61.198423	81.407238	-0.155637	-90.155639
5.900000	-0.146073	-84.713436	-61.009992	77.556124	-61.009992	77.556124	-0.157995	-90.861420
5.950000	-0.148288	-85.370092	-60.816577	73.656112	-60.816577	73.656112	-0.160405	-91.565678
6.000000	-0.150523	-86.026111	-60.623513	69.727085	-60.623513	69.727085	-0.162838	-92.269314
6.050000	-0.152796	-86.680983	-60.427850	65.745832	-60.427850	65.745832	-0.165311	-92.971833
6.100000	-0.155102	-87.334852	-60.230452	61.704837	-60.230452	61.704837	-0.167820	-93.673382
6.150000	-0.157434	-87.987967	-60.033010	57.619036	-60.033010	57.619036	-0.170358	-94.374204
6.200000	-0.159814	-88.639724	-59.832130	53.433842	-59.832130	53.433842	-0.172946	-95.073725
6.250000	-0.162207	-89.291110	-59.633707	49.221540	-59.633707	49.221540	-0.175549	-95.772892
6.300000	-0.164661	-89.940795	-59.430816	44.862845	-59.430816	44.862845	-0.178218	-96.470448
6.350000	-0.167129	-90.590122	-59.230947	40.469168	-59.230947	40.469168	-0.180902	-97.167669
6.400000	-0.169647	-91.238137	-59.029801	35.947227	-59.029801	35.947227	-0.183639	-97.863660
6.450000	-0.172193	-91.885448	-58.830891	31.349948	-58.830891	31.349948	-0.186406	-98.559002
6.500000	-0.174776	-92.531822	-58.633413	26.652220	-58.633413	26.652220	-0.189212	-99.253477
6.550000	-0.177402	-93.177163	-58.438518	21.837164	-58.438518	21.837164	-0.192063	-99.947009
6.600000	-0.180051	-93.821930	-58.246918	16.956926	-58.246918	16.956926	-0.194940	-100.640016
6.650000	-0.182758	-94.465348	-58.059591	11.920857	-58.059591	11.920857	-0.197878	-101.331810
6.700000	-0.185480	-95.108431	-57.876480	6.846512	-57.876480	6.846512	-0.200832	-102.023304
6.750000	-0.188265	-95.750084	-57.700210	1.612240	-57.700210	1.612240	-0.203852	-102.713532
6.800000	-0.191071	-96.391308	-57.529273	-3.665708	-57.529273	-3.665708	-0.206895	-103.403386
6.850000	-0.193926	-97.031459	-57.366121	-9.052845	-57.366121	-9.052845	-0.209989	-104.092305
6.900000	-0.196818	-97.670877	-57.210420	-14.501837	-57.210420	-14.501837	-0.213122	-104.780598
6.950000	-0.199745	-98.309561	-57.061829	-20.012682	-57.061829	-20.012682	-0.216292	-105.468265
7.000000	-0.202724	-98.947227	-56.923186	-25.584928	-56.923186	-25.584928	-0.219516	-106.155078
7.050000	-0.205724	-99.584484	-56.789657	-31.181735	-56.789657	-31.181735	-0.222763	-106.841550
7.100000	-0.208791	-100.220454	-56.668114	-36.817617	-56.668114	-36.817617	-0.226080	-107.526967
7.150000	-0.211876	-100.856132	-56.550403	-42.455855	-56.550403	-42.455855	-0.229415	-108.212150
7.200000	-0.215024	-101.490656	-56.442549	-48.090196	-56.442549	-48.090196	-0.232817	-108.896413
7.250000	-0.218200	-102.124714	-56.338660	-53.706613	-56.338660	-53.706613	-0.236248	-109.580314
7.300000	-0.221425	-102.757935	-56.240701	-59.290768	-56.240701	-59.290768	-0.239729	-110.263565
7.350000	-0.224693	-103.390435	-56.146125	-64.822669	-56.146125	-64.822669	-0.243257	-110.946274
7.400000	-0.227996	-104.022396	-56.054267	-70.315380	-56.054267	-70.315380	-0.246820	-111.628579
7.450000	-0.231359	-104.653402	-55.963387	-75.709255	-55.963387	-75.709255	-0.250446	-112.310191
7.500000	-0.234740	-105.284148	-55.873453	-81.076176	-55.873453	-81.076176	-0.254091	-112.991614
7.550000	-0.238199	-105.913726	-55.780293	-86.291285	-55.780293	-86.291285	-0.257817	-113.672225
7.600000	-0.241676	-106.543064	-55.686356	-91.470155	-55.686356	-91.470155	-0.261563	-114.352676
7.650000	-0.245216	-107.171522	-55.587023	-96.516145	-55.587023	-96.516145	-0.265374	-115.032543
7.700000	-0.248791	-107.799521	-55.483718	-101.485801	-55.483718	-101.485801	-0.269221	-115.712123
7.750000	-0.252413	-108.426908	-55.374917	-106.353680	-55.374917	-106.353680	-0.273117	-116.391318
7.800000	-0.256087	-109.053639	-55.257797	-111.106077	-55.257797	-111.106077	-0.277069	-117.070128
7.850000	-0.259791	-109.680007	-55.136940	-115.794316	-55.136940	-115.794316	-0.281051	-117.748723
7.900000	-0.263566	-110.305545	-55.002603	-120.332781	-55.002603	-120.332781	-0.285107	-118.426870
7.950000	-0.267359	-110.930880	-54.866391	-124.834538	-54.866391	-124.834538	-0.289184	-119.104909
8.000000	-0.271230	-111.555367	-54.713884	-129.183614	-54.713884	-129.183614	-0.293340	-119.782532
8.050000	-0.275126	-112.179610	-54.557731	-133.489949	-54.557731	-133.489949	-0.297523	-120.460049
8.100000	-0.279081	-112.803239	-54.388936	-137.689430	-54.388936	-137.689430	-0.301770	-121.137301
8.150000	-0.283080	-113.426469	-54.211620	-141.823439	-54.211620	-141.823439	-0.306061	-121.814408
8.200000	-0.287122	-114.049299	-54.026361	-145.891976	-54.026361	-145.891976	-0.310398	-122.491370
8.250000	-0.291225	-114.671600	-53.827317	-149.882672	-53.827317	-149.882672	-0.314800	-123.168182
8.300000	-0.295354	-115.293689	-53.625836	-153.842233	-53.625836	-153.842233	-0.319228	-123.844935
8.350000	-0.299562	-115.915146	-53.405054	-157.723803	-53.405054	-157.723803	-0.323741	-124.521571
8.400000	-0.303790	-116.536467	-53.184082	-161.591358	-53.184082	-161.591358	-0.328275	-125.198191
8.450000	-0.308092	-117.157259	-52.945957	-165.410811	-52.945957	-165.410811	-0.332888	-125.874777
8.500000	-0.312427	-117.777853	-52.704357	-169.221200	-52.704357	-169.221200	-0.337535	-126.551379
8.550000	-0.316818	-118.398093	-52.452102	-173.015276	-52.452102	-173.015276	-0.342242	-127.228011
8.600000	-0.321259	-119.018055	-52.191310	-176.814078	-52.191310	-176.814078	-0.347004	-127.904720
8.650000	-0.325740	-119.637809	-51.926734	179.383578	-51.926734	179.383578	-0.351807	-128.581486
8.700000	-0.330289	-120.257235	-51.649160	175.546063	-51.649160	175.546063	-0.356685	-129.258430
8.750000	-0.334860	-120.876572	-51.374687	171.698956	-51.374687	171.698956	-0.361585	-129.935421
8.800000	-0.339518	-121.495564	-51.084158	167.768105	-51.084158	167.768105	-0.366579	-130.612730
8.850000	-0.344197	-122.114496	-50.798418	163.810635	-50.798418	163.810635	-0.371597	-131.290127
8.900000	-0.348947	-122.733215	-50.505411	159.755565	-50.505411	159.755565	-0.376690	-131.967848
8.950000	-0.353726	-123.351866	-50.216599	155.649796	-50.216599	155.649796	-0.381817	-132.645727
9.000000	-0.358568	-123.970385	-49.926981	151.427395	-49.926981	151.427395	-0.387012	-133.323965
9.050000	-0.363461	-124.588829	-49.641749	147.098197	-49.641749	147.098197	-0.392262	-134.002528
9.100000	-0.368404	-125.207222	-49.363748	142.652851	-49.363748	142.652851	-0.397568	-134.681444
9.150000	-0.373398	-125.825589	-49.096207	138.084142	-49.096207	138.084142	-0.402929	-135.360745
9.200000	-0.378446	-126.443956	-48.843445	133.379491	-48.843445	133.379491	-0.408350	-136.040490
9.250000	-0.383546	-127.062351	-48.609778	128.543105	-48.609778	128.543105	-0.413830	-136.720701
9.300000	-0.388698	-127.680801	-48.399174	123.584476	-48.399174	123.584476	-0.419366	-137.401395
9.350000	-0.393900	-128.299332	-48.215842	118.514504	-48.215842	118.514504	-0.424959	-138.082605
9.400000	-0.399154	-128.917971	-48.063811	113.350037	-48.063811	113.350037	-0.430609	-138.764362
9.450000	-0.404459	-129.536746	-47.946701	108.113878	-47.946701	108.113878	-0.436317	-139.446699
9.500000	-0.409815	-130.155683	-47.867484	102.834263	-47.867484	102.834263	-0.442083	-140.129649
9.550000	-0.415223	-130.774813	-47.828258	97.543784	-47.828258	97.543784	-0.447907	-140.813246
9.600000	-0.420683	-131.394172	-47.831409	92.279844	-47.831409	92.279844	-0.453791	-141.497545
9.650000	-0.426199	-132.013801	-47.877998	87.084815	-47.877998	87.084815	-0.459737	-142.182609
9.700000	-0.431766	-132.633716	-47.963858	81.991155	-47.963858	81.991155	-0.465743	-142.868427
9.750000	-0.437385	-133.253947	-48.086520	77.029722	-48.086520	77.029722	-0.471807	-143.555034
9.800000	-0.443055	-133.874527	-48.242764	72.226520	-48.242764	72.226520	-0.477932	-144.242465
9.850000	-0.448778	-134.495487	-48.428849	67.601922	-48.428849	67.601922	-0.484115	-144.930757
9.900000	-0.454552	-135.116860	-48.640754	63.170436	-48.640754	63.170436	-0.490359	-145.619944
9.950000	-0.460379	-135.738678	-48.874398	58.940938	-48.874398	58.940938	-0.496664	-146.310063
10.000000	-0.466257	-136.360977	-49.125811	54.917252	-49.125811	54.917252	-0.503029	-147.001151
