! freq	dB(S11)	phase(S11)	dB(S12)	phase(S12)	
!     	dB(S21)	phase(S21)	dB(S22)	phase(S22)	
!S-par simulation data
#  GHz  S  DB  R 50
0.000000	-0.000000	0.000000	-372.629718	0.000000	-372.629718	0.000000	-0.000000	0.000000
0.050000	-0.001066	-1.504616	-146.035212	77.170244	-146.035212	77.170244	-0.000539	-0.787216
0.100000	-0.003575	-3.001841	-139.730917	88.523040	-139.730917	88.523040	-0.001849	-1.571381
0.150000	-0.006444	-4.490949	-136.960724	98.515485	-136.960724	98.515485	-0.003404	-2.351837
0.200000	-0.009081	-5.975163	-135.587745	111.987776	-135.587745	111.987776	-0.004860	-3.129664
0.250000	-0.011403	-7.457383	-134.559880	131.676439	-134.559880	131.676439	-0.006136	-3.906126
0.300000	-0.013401	-8.938834	-132.384279	157.322605	-132.384279	157.322605	-0.007206	-4.681727
0.350000	-0.015215	-10.420249	-128.998044	179.526211	-128.998044	179.526211	-0.008151	-5.456967
0.400000	-0.016891	-11.901787	-125.052363	-166.922476	-125.052363	-166.922476	-0.009001	-6.231930
0.450000	-0.018495	-13.383425	-121.412774	-159.372841	-121.412774	-159.372841	-0.009797	-7.006678
0.500000	-0.020062	-14.865087	-118.150330	-155.503519	-118.150330	-155.503519	-0.010565	-7.781188
0.550000	-0.021619	-16.346680	-115.231703	-153.858993	-115.231703	-153.858993	-0.011322	-8.555423
0.600000	-0.023184	-17.828129	-112.640279	-153.488238	-112.640279	-153.488238	-0.012081	-9.329363
0.650000	-0.024771	-19.309336	-110.258126	-154.091473	-110.258126	-154.091473	-0.012851	-10.102919
0.700000	-0.026385	-20.790274	-108.100538	-155.292297	-108.100538	-155.292297	-0.013636	-10.876094
0.750000	-0.028030	-22.270905	-106.126814	-156.947896	-106.126814	-156.947896	-0.014439	-11.648855
0.800000	-0.029714	-23.751141	-104.267606	-159.015128	-104.267606	-159.015128	-0.015264	-12.421088
0.850000	-0.031432	-25.231011	-102.543288	-161.370226	-102.543288	-161.370226	-0.016110	-13.192822
0.900000	-0.033185	-26.710505	-100.934614	-163.969430	-100.934614	-163.969430	-0.016977	-13.964028
0.950000	-0.034971	-28.189620	-99.426549	-166.780666	-99.426549	-166.780666	-0.017865	-14.734678
1.000000	-0.036789	-29.668360	-98.007140	-169.779800	-98.007140	-169.779800	-0.018771	-15.504746
1.050000	-0.038640	-31.146682	-96.648957	-172.970196	-96.648957	-172.970196	-0.019699	-16.274119
1.100000	-0.040519	-32.624657	-95.365848	-176.311818	-95.365848	-176.311818	-0.020644	-17.042858
1.150000	-0.042422	-34.102305	-94.150509	-179.792924	-94.150509	-179.792924	-0.021605	-17.810944
1.200000	-0.044348	-35.579651	-92.996909	176.596730	-92.996909	176.596730	-0.022580	-18.578358
1.250000	-0.046295	-37.056722	-91.900009	172.866421	-91.900009	172.866421	-0.023568	-19.345082
1.300000	-0.048263	-38.533522	-90.845430	169.010165	-90.845430	169.010165	-0.024570	-20.110997
1.350000	-0.050247	-40.010126	-89.841845	165.053156	-89.841845	165.053156	-0.025581	-20.876185
1.400000	-0.052246	-41.486574	-88.885734	161.003751	-88.885734	161.003751	-0.026602	-21.640635
1.450000	-0.054258	-42.962909	-87.974020	156.870388	-87.974020	156.870388	-0.027630	-22.404331
1.500000	-0.056283	-44.439177	-87.103974	152.661648	-87.103974	152.661648	-0.028664	-23.167262
1.550000	-0.058319	-45.915433	-86.267563	148.378013	-86.267563	148.378013	-0.029704	-23.929302
1.600000	-0.060366	-47.391737	-85.469325	144.038846	-85.469325	144.038846	-0.030749	-24.690552
1.650000	-0.062421	-48.868145	-84.706918	139.653099	-84.706918	139.653099	-0.031797	-25.451000
1.700000	-0.064485	-50.344714	-83.978140	135.229698	-83.978140	135.229698	-0.032847	-26.210637
1.750000	-0.066558	-51.821507	-83.280892	130.777445	-83.280892	130.777445	-0.033899	-26.969452
1.800000	-0.068639	-53.298636	-82.610067	126.303197	-82.610067	126.303197	-0.034952	-27.727318
1.850000	-0.070729	-54.776136	-81.967362	121.818885	-81.967362	121.818885	-0.036005	-28.484343
1.900000	-0.072826	-56.254075	-81.350732	117.332172	-81.350732	117.332172	-0.037059	-29.240518
1.950000	-0.074932	-57.732526	-80.758203	112.850193	-80.758203	112.850193	-0.038111	-29.995836
2.000000	-0.077047	-59.211565	-80.187869	108.379491	-80.187869	108.379491	-0.039164	-30.750289
2.050000	-0.079172	-60.691368	-79.635882	103.928904	-79.635882	103.928904	-0.040215	-31.503751
2.100000	-0.081308	-62.171907	-79.103144	99.500900	-79.103144	99.500900	-0.041265	-32.256362
2.150000	-0.083454	-63.653331	-78.586731	95.101804	-78.586731	95.101804	-0.042314	-33.008044
2.200000	-0.085613	-65.135740	-78.084998	90.735855	-78.084998	90.735855	-0.043362	-33.758790
2.250000	-0.087785	-66.619144	-77.597560	86.403297	-77.597560	86.403297	-0.044408	-34.508663
2.300000	-0.089971	-68.103825	-77.120614	82.112532	-77.120614	82.112532	-0.045454	-35.257511
2.350000	-0.092172	-69.589702	-76.655099	77.859352	-76.655099	77.859352	-0.046498	-36.005471
2.400000	-0.094390	-71.076977	-76.198584	73.648006	-76.198584	73.648006	-0.047543	-36.752465
2.450000	-0.096627	-72.565772	-75.749845	69.479178	-75.749845	69.479178	-0.048586	-37.498483
2.500000	-0.098881	-74.056071	-75.309071	65.349712	-75.309071	65.349712	-0.049630	-38.243595
2.550000	-0.101157	-75.548260	-74.872760	61.265801	-74.872760	61.265801	-0.050675	-38.987640
2.600000	-0.103454	-77.042193	-74.442557	57.220214	-74.442557	57.220214	-0.051720	-39.730765
2.650000	-0.105776	-78.538134	-74.016426	53.215109	-74.016426	53.215109	-0.052766	-40.472885
2.700000	-0.108122	-80.036228	-73.593629	49.248972	-73.593629	49.248972	-0.053815	-41.213994
2.750000	-0.110493	-81.536426	-73.174955	45.317339	-73.174955	45.317339	-0.054865	-41.954163
2.800000	-0.112895	-83.039243	-72.757125	41.423766	-72.757125	41.423766	-0.055919	-42.693226
2.850000	-0.115325	-84.544446	-72.342452	37.560722	-72.342452	37.560722	-0.056976	-43.431336
2.900000	-0.117786	-86.052378	-71.929202	33.728550	-71.929202	33.728550	-0.058037	-44.168407
2.950000	-0.120281	-87.563204	-71.517037	29.924579	-71.517037	29.924579	-0.059103	-44.904430
3.000000	-0.122808	-89.076844	-71.107176	26.144353	-71.107176	26.144353	-0.060173	-45.639482
3.050000	-0.125374	-90.593953	-70.696561	22.388708	-70.696561	22.388708	-0.061250	-46.373391
3.100000	-0.127976	-92.114203	-70.287938	18.651357	-70.287938	18.651357	-0.062334	-47.106315
3.150000	-0.130617	-93.638023	-69.879815	14.931066	-69.879815	14.931066	-0.063424	-47.838167
3.200000	-0.133300	-95.165606	-69.472149	11.224632	-69.472149	11.224632	-0.064522	-48.568938
3.250000	-0.136023	-96.696826	-69.066406	7.528352	-69.066406	7.528352	-0.065628	-49.298707
3.300000	-0.138794	-98.232509	-68.659805	3.840439	-68.659805	3.840439	-0.066744	-50.027300
3.350000	-0.141609	-99.772211	-68.255280	0.156705	-68.255280	0.156705	-0.067868	-50.754879
3.400000	-0.144471	-101.316458	-67.851582	-3.525381	-67.851582	-3.525381	-0.069004	-51.481354
3.450000	-0.147383	-102.865477	-67.448898	-7.209067	-67.448898	-7.209067	-0.070150	-52.206720
3.500000	-0.150342	-104.419088	-67.048780	-10.896818	-67.048780	-10.896818	-0.071307	-52.931056
3.550000	-0.153359	-105.978310	-66.648871	-14.592613	-66.648871	-14.592613	-0.072477	-53.654185
3.600000	-0.156426	-107.542563	-66.252050	-18.298031	-66.252050	-18.298031	-0.073660	-54.376276
3.650000	-0.159549	-109.112489	-65.857368	-22.016393	-65.857368	-22.016393	-0.074856	-55.097236
3.700000	-0.162730	-110.688347	-65.465212	-25.750401	-65.465212	-25.750401	-0.076066	-55.817060
3.750000	-0.165966	-112.269896	-65.077076	-29.500890	-65.077076	-29.500890	-0.077289	-56.535833
3.800000	-0.169267	-113.858373	-64.691217	-33.273022	-64.691217	-33.273022	-0.078529	-57.253373
3.850000	-0.172627	-115.453044	-64.310198	-37.065533	-64.310198	-37.065533	-0.079784	-57.969854
3.900000	-0.176050	-117.054678	-63.933446	-40.881625	-63.933446	-40.881625	-0.081055	-58.685182
3.950000	-0.179538	-118.663570	-63.561501	-44.722681	-63.561501	-44.722681	-0.082342	-59.399355
4.000000	-0.183089	-120.279406	-63.195623	-48.587616	-63.195623	-48.587616	-0.083646	-60.112459
4.050000	-0.186712	-121.903674	-62.834851	-52.481083	-62.834851	-52.481083	-0.084970	-60.824312
4.100000	-0.190401	-123.535458	-62.481115	-56.399196	-62.481115	-56.399196	-0.086310	-61.535090
4.150000	-0.194160	-125.175669	-62.134233	-60.343806	-62.134233	-60.343806	-0.087669	-62.244700
4.200000	-0.197991	-126.824643	-61.794773	-64.314245	-61.794773	-64.314245	-0.089047	-62.953142
4.250000	-0.201891	-128.481981	-61.463548	-68.307623	-61.463548	-68.307623	-0.090444	-63.660503
4.300000	-0.205871	-130.149448	-61.140363	-72.326109	-61.140363	-72.326109	-0.091863	-64.366602
4.350000	-0.209922	-131.825922	-60.826213	-76.364300	-60.826213	-76.364300	-0.093300	-65.071617
4.400000	-0.214049	-133.512474	-60.521180	-80.421733	-60.521180	-80.421733	-0.094759	-65.775457
4.450000	-0.218255	-135.209478	-60.225640	-84.495656	-60.225640	-84.495656	-0.096239	-66.478122
4.500000	-0.222535	-136.916438	-59.939788	-88.582325	-59.939788	-88.582325	-0.097739	-67.179703
4.550000	-0.226900	-138.635426	-59.663906	-92.680362	-59.663906	-92.680362	-0.099263	-67.880018
4.600000	-0.231340	-140.365085	-59.397951	-96.784975	-59.397951	-96.784975	-0.100808	-68.579248
4.650000	-0.235863	-142.106660	-59.142029	-100.893560	-59.142029	-100.893560	-0.102375	-69.277305
4.700000	-0.240467	-143.860563	-58.896129	-105.002507	-58.896129	-105.002507	-0.103966	-69.974189
4.750000	-0.245149	-145.626185	-58.659852	-109.108902	-58.659852	-109.108902	-0.105578	-70.669992
4.800000	-0.249920	-147.405933	-58.433531	-113.208685	-58.433531	-113.208685	-0.107216	-71.364535
4.850000	-0.254769	-149.198184	-58.216346	-117.299876	-58.216346	-117.299876	-0.108877	-72.058001
4.900000	-0.259702	-151.004367	-58.008241	-121.379166	-58.008241	-121.379166	-0.110561	-72.750303
4.950000	-0.264720	-152.824929	-57.808831	-125.443925	-57.808831	-125.443925	-0.112271	-73.441444
5.000000	-0.269816	-154.659133	-57.617383	-129.493427	-57.617383	-129.493427	-0.114003	-74.131515
5.050000	-0.275002	-156.509738	-57.434005	-133.523148	-57.434005	-133.523148	-0.115762	-74.820344
5.100000	-0.280265	-158.374826	-57.257624	-137.534606	-57.257624	-137.534606	-0.117545	-75.508111
5.150000	-0.285612	-160.256014	-57.088006	-141.525396	-57.088006	-141.525396	-0.119354	-76.194732
5.200000	-0.291042	-162.153777	-56.924604	-145.494936	-56.924604	-145.494936	-0.121188	-76.880214
5.250000	-0.296547	-164.067228	-56.766698	-149.444723	-56.766698	-149.444723	-0.123047	-77.564647
5.300000	-0.302139	-165.999490	-56.614148	-153.371711	-56.614148	-153.371711	-0.124935	-78.247864
5.350000	-0.307804	-167.948316	-56.466091	-157.279720	-56.466091	-157.279720	-0.126847	-78.930045
5.400000	-0.313547	-169.915509	-56.322224	-161.168015	-56.322224	-161.168015	-0.128786	-79.611108
5.450000	-0.319366	-171.901556	-56.182075	-165.037865	-56.182075	-165.037865	-0.130752	-80.291062
5.500000	-0.325253	-173.905396	-56.045159	-168.891933	-56.045159	-168.891933	-0.132744	-80.969997
5.550000	-0.331217	-175.930507	-55.911226	-172.729467	-55.911226	-172.729467	-0.134766	-81.647754
5.600000	-0.337245	-177.974284	-55.779822	-176.554615	-55.779822	-176.554615	-0.136815	-82.324507
5.650000	-0.343339	179.961301	-55.650704	179.631794	-55.650704	179.631794	-0.138891	-83.000181
5.700000	-0.349494	177.875782	-55.523611	175.827536	-55.523611	175.827536	-0.140997	-83.674785
5.750000	-0.355705	175.770409	-55.398344	172.030036	-55.398344	172.030036	-0.143129	-84.348410
5.800000	-0.361974	173.641397	-55.274731	168.237955	-55.274731	168.237955	-0.145293	-85.020902
5.850000	-0.368289	171.491725	-55.152682	164.448420	-55.152682	164.448420	-0.147485	-85.692432
5.900000	-0.374650	169.319297	-55.032120	160.659653	-55.032120	160.659653	-0.149707	-86.362930
5.950000	-0.381051	167.123706	-54.913030	156.869478	-54.913030	156.869478	-0.151960	-87.032406
6.000000	-0.387484	164.906417	-54.795442	153.076334	-54.795442	153.076334	-0.154242	-87.700949
6.050000	-0.393948	162.663419	-54.679424	149.277714	-54.679424	149.277714	-0.156558	-88.368413
6.100000	-0.400431	160.398070	-54.565082	145.472858	-54.565082	145.472858	-0.158903	-89.034965
6.150000	-0.406930	158.108227	-54.452569	141.659954	-54.452569	141.659954	-0.161281	-89.700538
6.200000	-0.413435	155.793595	-54.342086	137.837790	-54.342086	137.837790	-0.163693	-90.365144
6.250000	-0.419941	153.455871	-54.233766	134.006329	-54.233766	134.006329	-0.166135	-91.028868
6.300000	-0.426437	151.090964	-54.128025	130.163378	-54.128025	130.163378	-0.168614	-91.691576
6.350000	-0.432917	148.702587	-54.024939	126.310351	-54.024939	126.310351	-0.171126	-92.353424
6.400000	-0.439370	146.288655	-53.924886	122.446511	-53.924886	122.446511	-0.173673	-93.014352
6.450000	-0.445787	143.849066	-53.828184	118.572353	-53.828184	118.572353	-0.176256	-93.674374
6.500000	-0.452161	141.385747	-53.734907	114.689386	-53.734907	114.689386	-0.178872	-94.333568
6.550000	-0.458474	138.894740	-53.645798	110.797501	-53.645798	110.797501	-0.181529	-94.991812
6.600000	-0.464725	136.380046	-53.560669	106.899508	-53.560669	106.899508	-0.184221	-95.649252
6.650000	-0.470897	133.839789	-53.480023	102.996723	-53.480023	102.996723	-0.186952	-96.305835
6.700000	-0.476980	131.274137	-53.404122	99.091583	-53.404122	99.091583	-0.189722	-96.961573
6.750000	-0.482970	128.685233	-53.332824	95.186517	-53.332824	95.186517	-0.192529	-97.616541
6.800000	-0.488838	126.069520	-53.266995	91.284804	-53.266995	91.284804	-0.195379	-98.270626
6.850000	-0.494592	123.431168	-53.206048	87.389008	-53.206048	87.389008	-0.198268	-98.923967
6.900000	-0.500210	120.768680	-53.150414	83.502748	-53.150414	83.502748	-0.201198	-99.576512
6.950000	-0.505681	118.082576	-53.100121	79.629738	-53.100121	79.629738	-0.204171	-100.228276
7.000000	-0.511006	115.375156	-53.054744	75.772047	-53.054744	75.772047	-0.207183	-100.879329
7.050000	-0.516148	112.643579	-53.014961	71.936308	-53.014961	71.936308	-0.210243	-101.529568
7.100000	-0.521124	109.891985	-52.979856	68.122856	-52.979856	68.122856	-0.213343	-102.179122
7.150000	-0.525909	107.119438	-52.949608	64.336829	-52.949608	64.336829	-0.216488	-102.827945
7.200000	-0.530494	104.326855	-52.923945	60.581819	-52.923945	60.581819	-0.219678	-103.476052
7.250000	-0.534887	101.516582	-52.902252	56.858201	-52.902252	56.858201	-0.222910	-104.123509
7.300000	-0.539054	98.687466	-52.884651	53.173033	-52.884651	53.173033	-0.226190	-104.770250
7.350000	-0.543000	95.841668	-52.870516	49.526985	-52.870516	49.526985	-0.229516	-105.416327
7.400000	-0.546720	92.980319	-52.859432	45.922425	-52.859432	45.922425	-0.232887	-106.061757
7.450000	-0.550209	90.104613	-52.850961	42.361426	-52.850961	42.361426	-0.236305	-106.706551
7.500000	-0.553461	87.215810	-52.844645	38.845745	-52.844645	38.845745	-0.239769	-107.350725
7.550000	-0.556470	84.315020	-52.840035	35.377764	-52.840035	35.377764	-0.243280	-107.994281
7.600000	-0.559238	81.403873	-52.836614	31.957695	-52.836614	31.957695	-0.246839	-108.637247
7.650000	-0.561765	78.483792	-52.833900	28.586334	-52.833900	28.586334	-0.250444	-109.279638
7.700000	-0.564053	75.556247	-52.831417	25.264169	-52.831417	25.264169	-0.254097	-109.921470
7.750000	-0.566103	72.622743	-52.828694	21.991400	-52.828694	21.991400	-0.257796	-110.562760
7.800000	-0.567915	69.684760	-52.825251	18.768915	-52.825251	18.768915	-0.261545	-111.203513
7.850000	-0.569499	66.743980	-52.820648	15.595397	-52.820648	15.595397	-0.265340	-111.843759
7.900000	-0.570856	63.801987	-52.814417	12.471197	-52.814417	12.471197	-0.269184	-112.483506
7.950000	-0.572000	60.860452	-52.806166	9.394525	-52.806166	9.394525	-0.273075	-113.122781
8.000000	-0.572951	57.920734	-52.795674	6.361711	-52.795674	6.361711	-0.277011	-113.761630
8.050000	-0.573688	54.984974	-52.782135	3.378687	-52.782135	3.378687	-0.281000	-114.400004
8.100000	-0.574253	52.054171	-52.765637	0.436985	-52.765637	0.436985	-0.285033	-115.037989
8.150000	-0.574644	49.130235	-52.745614	-2.461411	-52.745614	-2.461411	-0.289115	-115.675574
8.200000	-0.574875	46.214843	-52.721723	-5.318316	-52.721723	-5.318316	-0.293246	-116.312781
8.250000	-0.574971	43.308670	-52.694009	-8.138511	-52.694009	-8.138511	-0.297422	-116.949659
8.300000	-0.574927	40.414952	-52.661497	-10.918098	-52.661497	-10.918098	-0.301651	-117.586178
8.350000	-0.574778	37.533321	-52.624630	-13.664902	-52.624630	-13.664902	-0.305925	-118.222411
8.400000	-0.574531	34.666102	-52.582806	-16.378254	-52.582806	-16.378254	-0.310249	-118.858357
8.450000	-0.574202	31.814738	-52.535769	-19.060622	-52.535769	-19.060622	-0.314623	-119.494043
8.500000	-0.573814	28.979128	-52.483758	-21.716484	-52.483758	-21.716484	-0.319043	-120.129508
8.550000	-0.573375	26.163288	-52.425655	-24.344294	-52.425655	-24.344294	-0.323517	-120.764745
8.600000	-0.572909	23.365518	-52.362195	-26.950634	-52.362195	-26.950634	-0.328037	-121.399812
8.650000	-0.572430	20.588348	-52.292734	-29.536320	-52.292734	-29.536320	-0.332610	-122.034718
8.700000	-0.571953	17.832864	-52.217086	-32.104454	-52.217086	-32.104454	-0.337233	-122.669492
8.750000	-0.571495	15.098217	-52.135651	-34.659021	-52.135651	-34.659021	-0.341905	-123.304167
8.800000	-0.571074	12.388869	-52.047167	-37.201377	-52.047167	-37.201377	-0.346634	-123.938757
8.850000	-0.570701	9.701977	-51.952634	-39.736531	-51.952634	-39.736531	-0.351413	-124.573302
8.900000	-0.570394	7.040087	-51.851364	-42.267212	-51.851364	-42.267212	-0.356246	-125.207823
8.950000	-0.570166	4.403891	-51.743231	-44.797418	-51.743231	-44.797418	-0.361134	-125.842351
9.000000	-0.570023	1.791908	-51.628805	-47.330616	-51.628805	-47.330616	-0.366073	-126.476909
9.050000	-0.569994	-0.791254	-51.506692	-49.872067	-51.506692	-49.872067	-0.371074	-127.111537
9.100000	-0.570074	-3.349296	-51.378174	-52.424941	-51.378174	-52.424941	-0.376129	-127.746251
9.150000	-0.570282	-5.879784	-51.242558	-54.994671	-51.242558	-54.994671	-0.381243	-128.381088
9.200000	-0.570630	-8.382399	-51.099830	-57.586695	-51.099830	-57.586695	-0.386417	-129.016078
9.250000	-0.571114	-10.859081	-50.950777	-60.204009	-50.950777	-60.204009	-0.391647	-129.651235
9.300000	-0.571767	-13.305309	-50.793999	-62.857418	-50.793999	-62.857418	-0.396945	-130.286623
9.350000	-0.572573	-15.725321	-50.631127	-65.547819	-50.631127	-65.547819	-0.402303	-130.922236
9.400000	-0.573550	-18.116874	-50.461624	-68.284555	-50.461624	-68.284555	-0.407726	-131.558122
9.450000	-0.574706	-20.479955	-50.285776	-71.075219	-50.285776	-71.075219	-0.413215	-132.194315
9.500000	-0.576032	-22.816785	-50.104705	-73.922218	-50.104705	-73.922218	-0.418769	-132.830817
9.550000	-0.577561	-25.123081	-49.917467	-76.844024	-49.917467	-76.844024	-0.424397	-133.467715
9.600000	-0.579269	-27.403326	-49.726137	-79.838169	-49.726137	-79.838169	-0.430093	-134.104982
9.650000	-0.581174	-29.655501	-49.530816	-82.918978	-49.530816	-82.918978	-0.435862	-134.742678
9.700000	-0.583278	-31.879817	-49.332575	-86.096194	-49.332575	-86.096194	-0.441706	-135.380837
9.750000	-0.585570	-34.078617	-49.133077	-89.370435	-49.133077	-89.370435	-0.447622	-136.019451
9.800000	-0.588082	-36.247944	-48.933056	-92.768307	-48.933056	-92.768307	-0.453624	-136.658630
9.850000	-0.590783	-38.392286	-48.735012	-96.280751	-48.735012	-96.280751	-0.459701	-137.298325
9.900000	-0.593692	-40.509856	-48.540745	-99.924957	-48.540745	-99.924957	-0.465861	-137.938608
9.950000	-0.596808	-42.601011	-48.352940	-103.708338	-48.352940	-103.708338	-0.472108	-138.579514
10.000000	-0.600116	-44.668089	-48.173851	-107.624696	-48.173851	-107.624696	-0.478436	-139.221021
