! freq	dB(S11)	phase(S11)	dB(S12)	phase(S12)	
!     	dB(S21)	phase(S21)	dB(S22)	phase(S22)	
!S-par simulation data
#  GHz  S  DB  R 50
0.000000	-0.000000	0.000000	-417.263100	0.000000	-417.263100	0.000000	-0.000000	0.000000
0.050000	-0.001058	-0.767739	-127.116795	-3.527002	-127.116795	-3.527002	-0.001340	-0.826477
0.100000	-0.002560	-1.525547	-128.110428	-5.644146	-128.110428	-5.644146	-0.002980	-1.640579
0.150000	-0.003579	-2.279475	-130.099527	-8.999824	-130.099527	-8.999824	-0.003987	-2.451218
0.200000	-0.004322	-3.032837	-133.873365	-15.171362	-133.873365	-15.171362	-0.004714	-3.261674
0.250000	-0.004956	-3.786229	-141.769733	-54.261437	-141.769733	-54.261437	-0.005355	-4.072291
0.300000	-0.005572	-4.539634	-137.255270	-158.213844	-137.255270	-158.213844	-0.005996	-4.882929
0.350000	-0.006209	-5.292932	-129.336470	-179.943893	-129.336470	-179.943893	-0.006674	-5.693419
0.400000	-0.006897	-6.045913	-124.485874	175.278222	-124.485874	175.278222	-0.007416	-6.503508
0.450000	-0.007603	-6.798785	-121.250329	171.841243	-121.250329	171.841243	-0.008179	-7.313461
0.500000	-0.008386	-7.550984	-118.434580	169.571002	-118.434580	169.571002	-0.009031	-8.122604
0.550000	-0.009188	-8.302960	-116.211616	167.406947	-116.211616	167.406947	-0.009904	-8.931484
0.600000	-0.010047	-9.054275	-114.210337	165.478581	-114.210337	165.478581	-0.010839	-9.739589
0.650000	-0.010936	-9.805100	-112.452899	163.602270	-112.452899	163.602270	-0.011806	-10.547123
0.700000	-0.011855	-10.555434	-110.881876	161.778014	-110.881876	161.778014	-0.012806	-11.354089
0.750000	-0.012811	-11.304958	-109.399140	159.974936	-109.399140	159.974936	-0.013843	-12.160123
0.800000	-0.013779	-12.054202	-108.087483	158.178118	-108.087483	158.178118	-0.014893	-12.965834
0.850000	-0.014781	-12.802363	-106.792033	156.371269	-106.792033	156.371269	-0.015977	-13.770308
0.900000	-0.015790	-13.550190	-105.620593	154.554592	-105.620593	154.554592	-0.017068	-14.574401
0.950000	-0.016815	-14.297204	-104.493636	152.714046	-104.493636	152.714046	-0.018174	-15.377569
1.000000	-0.017848	-15.043568	-103.424137	150.845375	-103.424137	150.845375	-0.019288	-16.180000
1.050000	-0.018887	-15.789413	-102.420674	148.954203	-102.420674	148.954203	-0.020406	-16.981842
1.100000	-0.019931	-16.534288	-101.427874	147.010174	-101.427874	147.010174	-0.021528	-17.782586
1.150000	-0.020977	-17.278850	-100.509136	145.048087	-100.509136	145.048087	-0.022651	-18.582976
1.200000	-0.022022	-18.022316	-99.584742	143.015470	-99.584742	143.015470	-0.023771	-19.382129
1.250000	-0.023066	-18.765364	-98.713764	140.952024	-98.713764	140.952024	-0.024890	-20.180810
1.300000	-0.024108	-19.507626	-97.861511	138.830618	-97.861511	138.830618	-0.026004	-20.978604
1.350000	-0.025145	-20.249146	-97.027835	136.647778	-97.027835	136.647778	-0.027114	-21.775562
1.400000	-0.026180	-20.990194	-96.233794	134.425844	-96.233794	134.425844	-0.028219	-22.571987
1.450000	-0.027207	-21.730169	-95.429406	132.105515	-95.429406	132.105515	-0.029316	-23.367204
1.500000	-0.028232	-22.469819	-94.670707	129.753806	-94.670707	129.753806	-0.030410	-24.162054
1.550000	-0.029248	-23.208401	-93.901879	127.294692	-93.901879	127.294692	-0.031495	-24.955700
1.600000	-0.030261	-23.946477	-93.161435	124.780215	-93.161435	124.780215	-0.032576	-25.748777
1.650000	-0.031268	-24.683802	-92.432562	122.183649	-92.432562	122.183649	-0.033651	-26.541008
1.700000	-0.032269	-25.420191	-91.700711	119.475973	-91.700711	119.475973	-0.034719	-27.332183
1.750000	-0.033266	-26.156111	-90.998403	116.712741	-90.998403	116.712741	-0.035783	-28.122831
1.800000	-0.034258	-26.891119	-90.294003	113.832702	-90.294003	113.832702	-0.036842	-28.912452
1.850000	-0.035246	-27.625476	-89.606440	110.869229	-89.606440	110.869229	-0.037897	-29.701338
1.900000	-0.036230	-28.359033	-88.924040	107.795836	-88.924040	107.795836	-0.038949	-30.489325
1.950000	-0.037211	-29.091791	-88.249470	104.612523	-88.249470	104.612523	-0.039997	-31.276411
2.000000	-0.038189	-29.823867	-87.587358	101.329768	-87.587358	101.329768	-0.041043	-32.062729
2.050000	-0.039165	-30.554988	-86.925205	97.907796	-86.925205	97.907796	-0.042086	-32.847971
2.100000	-0.040139	-31.285549	-86.282654	94.400743	-86.282654	94.400743	-0.043129	-33.632584
2.150000	-0.041112	-32.014991	-85.633609	90.723528	-85.633609	90.723528	-0.044171	-34.415938
2.200000	-0.042085	-32.744003	-85.010818	86.979447	-85.010818	86.979447	-0.045213	-35.198808
2.250000	-0.043057	-33.471725	-84.376922	83.034769	-84.376922	83.034769	-0.046256	-35.980227
2.300000	-0.044030	-34.199152	-83.774934	79.044673	-83.774934	79.044673	-0.047300	-36.761315
2.350000	-0.045004	-34.925110	-83.159574	74.827491	-83.159574	74.827491	-0.048346	-37.540752
2.400000	-0.045979	-35.650917	-82.580171	70.588051	-82.580171	70.588051	-0.049393	-38.320020
2.450000	-0.046959	-36.375068	-81.987889	66.103778	-81.987889	66.103778	-0.050446	-39.097429
2.500000	-0.047938	-37.099218	-81.433428	61.619506	-81.433428	61.619506	-0.051499	-39.874837
2.550000	-0.048924	-37.821518	-80.869450	56.887126	-80.869450	56.887126	-0.052561	-40.650170
2.600000	-0.049911	-38.543817	-80.339869	52.154746	-80.339869	52.154746	-0.053622	-41.425504
2.650000	-0.050906	-39.264382	-79.812076	47.226517	-79.812076	47.226517	-0.054694	-42.198895
2.700000	-0.051901	-39.984788	-79.312070	42.280484	-79.312070	42.280484	-0.055767	-42.972109
2.750000	-0.052907	-40.703583	-78.822476	37.197578	-78.822476	37.197578	-0.056851	-43.743521
2.800000	-0.053914	-41.422056	-78.355828	32.087297	-78.355828	32.087297	-0.057937	-44.514572
2.850000	-0.054932	-42.139048	-77.904819	26.899300	-77.904819	26.899300	-0.059035	-45.283971
2.900000	-0.055953	-42.855547	-77.473489	21.685397	-77.473489	21.685397	-0.060137	-46.052819
2.950000	-0.056984	-43.570704	-77.059576	16.445903	-77.059576	16.445903	-0.061251	-46.820173
3.000000	-0.058021	-44.285191	-76.663065	11.193612	-76.663065	11.193612	-0.062370	-47.586779
3.050000	-0.059068	-44.998484	-76.282986	5.955079	-76.282986	5.955079	-0.063501	-48.352056
3.100000	-0.060123	-45.710923	-75.918240	0.726373	-75.918240	0.726373	-0.064641	-49.116384
3.150000	-0.061187	-46.422322	-75.567333	-4.464625	-75.567333	-4.464625	-0.065791	-49.879557
3.200000	-0.062261	-47.132680	-75.229222	-9.617913	-75.229222	-9.617913	-0.066952	-50.641574
3.250000	-0.063344	-47.842158	-74.901966	-14.724144	-74.901966	-14.724144	-0.068122	-51.402615
3.300000	-0.064440	-48.550403	-74.584141	-19.764496	-74.584141	-19.764496	-0.069307	-52.162291
3.350000	-0.065543	-49.257934	-74.274735	-24.759803	-74.274735	-24.759803	-0.070500	-52.921177
3.400000	-0.066662	-49.964038	-73.970562	-29.665021	-73.970562	-29.665021	-0.071709	-53.678485
3.450000	-0.067787	-50.669600	-73.673446	-34.534366	-73.673446	-34.534366	-0.072926	-54.435195
3.500000	-0.068930	-51.373536	-73.376774	-39.296094	-73.376774	-39.296094	-0.074162	-55.190110
3.550000	-0.070078	-52.077106	-73.087016	-44.034357	-73.087016	-44.034357	-0.075404	-55.944624
3.600000	-0.071248	-52.778850	-72.792662	-48.655292	-72.792662	-48.655292	-0.076669	-56.697127
3.650000	-0.072420	-53.480410	-72.506198	-53.265385	-72.506198	-53.265385	-0.077937	-57.449427
3.700000	-0.073618	-54.179941	-72.210163	-57.756206	-72.210163	-57.756206	-0.079233	-58.199501
3.750000	-0.074817	-54.879472	-71.923886	-62.247027	-71.923886	-62.247027	-0.080529	-58.949574
3.800000	-0.076044	-55.576771	-71.623379	-66.623665	-71.623379	-66.623665	-0.081858	-59.697204
3.850000	-0.077272	-56.274071	-71.332923	-71.000304	-71.332923	-71.000304	-0.083186	-60.444834
3.900000	-0.078528	-56.969311	-71.028474	-75.289726	-71.028474	-75.289726	-0.084546	-61.190215
3.950000	-0.079788	-57.664363	-70.732283	-79.571219	-70.732283	-79.571219	-0.085908	-61.935391
4.000000	-0.081074	-58.357532	-70.423450	-83.790548	-70.423450	-83.790548	-0.087300	-62.678517
4.050000	-0.082366	-59.050324	-70.120898	-87.997444	-70.120898	-87.997444	-0.088698	-63.421232
4.100000	-0.083683	-59.741413	-69.807899	-92.164067	-69.807899	-92.164067	-0.090125	-64.162100
4.150000	-0.085010	-60.431934	-69.499155	-96.317266	-69.499155	-96.317266	-0.091560	-64.902351
4.200000	-0.086360	-61.120936	-69.182748	-100.448249	-69.182748	-100.448249	-0.093022	-65.640959
4.250000	-0.087722	-61.809179	-68.868662	-104.568122	-68.868662	-104.568122	-0.094498	-66.378747
4.300000	-0.089106	-62.496089	-68.550051	-108.679704	-68.550051	-108.679704	-0.095997	-67.115098
4.350000	-0.090506	-63.182048	-68.232054	-112.785362	-68.232054	-112.785362	-0.097513	-67.850425
4.400000	-0.091925	-63.866864	-67.912794	-116.892499	-67.912794	-116.892499	-0.099051	-68.584525
4.450000	-0.093364	-64.550536	-67.592812	-121.001116	-67.592812	-121.001116	-0.100611	-69.317397
4.500000	-0.094820	-65.233256	-67.274728	-125.117039	-67.274728	-125.117039	-0.102189	-70.049252
4.550000	-0.096299	-65.914642	-66.955099	-129.243190	-66.955099	-129.243190	-0.103794	-70.779682
4.600000	-0.097793	-66.595267	-66.640205	-133.378958	-66.640205	-133.378958	-0.105415	-71.509302
4.650000	-0.099315	-67.274369	-66.323577	-137.533962	-66.323577	-137.533962	-0.107067	-72.237303
4.700000	-0.100847	-67.952901	-66.013990	-141.698046	-66.013990	-141.698046	-0.108731	-72.964701
4.750000	-0.102413	-68.629724	-65.703199	-145.889369	-65.703199	-145.889369	-0.110432	-73.690291
4.800000	-0.103986	-69.306168	-65.401053	-150.087275	-65.401053	-150.087275	-0.112142	-74.415482
4.850000	-0.105597	-69.980720	-65.098957	-154.318086	-65.098957	-154.318086	-0.113894	-75.138682
4.900000	-0.107212	-70.655082	-64.806302	-158.552080	-64.806302	-158.552080	-0.115651	-75.861685
4.950000	-0.108871	-71.327371	-64.515588	-162.821075	-64.515588	-162.821075	-0.117456	-76.582521
5.000000	-0.110529	-71.999661	-64.234289	-167.090070	-64.234289	-167.090070	-0.119262	-77.303357
5.050000	-0.112236	-72.669700	-63.957248	-171.391696	-63.957248	-171.391696	-0.121123	-78.021857
5.100000	-0.113943	-73.339739	-63.688770	-175.693321	-63.688770	-175.693321	-0.122984	-78.740358
5.150000	-0.115696	-74.007729	-63.427191	179.983486	-63.427191	179.983486	-0.124897	-79.456749
5.200000	-0.117454	-74.675533	-63.173159	175.658333	-63.173159	175.658333	-0.126816	-80.172947
5.250000	-0.119255	-75.341487	-62.927488	171.323147	-62.927488	171.323147	-0.128783	-80.887259
5.300000	-0.121065	-76.007072	-62.688798	166.985953	-62.688798	166.985953	-0.130760	-81.601192
5.350000	-0.122916	-76.671006	-62.458824	162.648996	-62.458824	162.648996	-0.132783	-82.313457
5.400000	-0.124780	-77.334391	-62.235540	158.312117	-62.235540	158.312117	-0.134821	-83.025166
5.450000	-0.126681	-77.996322	-62.020422	153.983162	-62.020422	153.983162	-0.136900	-83.735420
5.500000	-0.128601	-78.657527	-61.811757	149.658169	-61.811757	149.658169	-0.139000	-84.444947
5.550000	-0.130554	-79.317474	-61.610097	145.345502	-61.610097	145.345502	-0.141136	-85.153227
5.600000	-0.132531	-79.976523	-61.414486	141.041638	-61.414486	141.041638	-0.143298	-85.860616
5.650000	-0.134538	-80.634505	-61.224439	136.751190	-61.224439	136.751190	-0.145492	-86.566959
5.700000	-0.136575	-81.291423	-61.039690	132.474157	-61.039690	132.474157	-0.147718	-87.272257
5.750000	-0.138638	-81.947463	-60.859091	128.208885	-60.859091	128.208885	-0.149970	-87.976701
5.800000	-0.140736	-82.602276	-60.682586	123.960077	-60.682586	123.960077	-0.152260	-88.679952
5.850000	-0.142855	-83.256397	-60.509089	119.719608	-60.509089	119.719608	-0.154571	-89.382534
5.900000	-0.145016	-83.909134	-60.337995	115.495816	-60.337995	115.495816	-0.156924	-90.083780
5.950000	-0.147193	-84.561360	-60.169205	111.276347	-60.169205	111.276347	-0.159293	-90.784536
6.000000	-0.149420	-85.212054	-60.000683	107.069847	-60.000683	107.069847	-0.161711	-91.483821
6.050000	-0.151657	-85.862412	-59.834280	102.864249	-59.834280	102.864249	-0.164140	-92.182786
6.100000	-0.153950	-86.511093	-59.665663	98.663162	-59.665663	98.663162	-0.166624	-92.880150
6.150000	-0.156249	-87.159610	-59.499515	94.461231	-59.499515	94.461231	-0.169114	-93.577358
6.200000	-0.158611	-87.806316	-59.328464	90.250026	-59.328464	90.250026	-0.171665	-94.272844
6.250000	-0.160973	-88.453021	-59.160718	86.038820	-59.160718	86.038820	-0.174217	-94.968331
6.300000	-0.163405	-89.097787	-58.985365	81.798859	-58.985365	81.798859	-0.176838	-95.661986
6.350000	-0.165838	-89.742552	-58.813483	77.558897	-58.813483	77.558897	-0.179459	-96.355641
6.400000	-0.168337	-90.385575	-58.633622	73.273152	-58.633622	73.273152	-0.182147	-97.047662
6.450000	-0.170842	-91.028440	-58.456403	68.983245	-58.456403	68.983245	-0.184842	-97.739535
6.500000	-0.173409	-91.669754	-58.271704	64.632400	-58.271704	64.632400	-0.187600	-98.429970
6.550000	-0.175989	-92.310758	-58.088695	60.269367	-58.088695	60.269367	-0.190371	-99.120118
6.600000	-0.178626	-92.950399	-57.899576	55.833098	-57.899576	55.833098	-0.193201	-99.809017
6.650000	-0.181282	-93.589585	-57.711264	51.372417	-57.711264	51.372417	-0.196052	-100.497500
6.700000	-0.183990	-94.227589	-57.519037	46.829975	-57.519037	46.829975	-0.198957	-101.184918
6.750000	-0.186724	-94.865002	-57.327103	42.246652	-57.327103	42.246652	-0.201891	-101.871803
6.800000	-0.189505	-95.501408	-57.134160	37.577705	-57.134160	37.577705	-0.204874	-102.557798
6.850000	-0.192319	-96.137094	-56.941806	32.847599	-56.941806	32.847599	-0.207893	-103.243156
6.900000	-0.195174	-96.771941	-56.751842	28.033510	-56.751842	28.033510	-0.210957	-103.927788
6.950000	-0.198070	-97.405950	-56.564205	23.135440	-56.564205	23.135440	-0.214066	-104.611694
7.000000	-0.201001	-98.039280	-56.382482	18.161218	-56.382482	18.161218	-0.217212	-105.295026
7.050000	-0.203980	-98.671661	-56.207155	13.080383	-56.207155	13.080383	-0.220412	-105.977556
7.100000	-0.206988	-99.303518	-56.040828	7.937678	-56.040828	7.937678	-0.223643	-106.659654
7.150000	-0.210053	-99.934326	-55.888492	2.671234	-55.888492	2.671234	-0.226936	-107.340889
7.200000	-0.213139	-100.564754	-55.747028	-2.636954	-55.747028	-2.636954	-0.230254	-108.021820
7.250000	-0.216291	-101.194043	-55.632223	-8.070377	-55.632223	-8.070377	-0.233643	-108.701840
7.300000	-0.219458	-101.823089	-55.527999	-13.521977	-55.527999	-13.521977	-0.237049	-109.381673
7.350000	-0.222697	-102.450919	-55.470029	-19.064468	-55.470029	-19.064468	-0.240536	-110.060564
7.400000	-0.225945	-103.078632	-55.419184	-24.604797	-55.419184	-24.604797	-0.244032	-110.739368
7.450000	-0.229275	-103.705063	-55.442706	-30.121342	-55.442706	-30.121342	-0.247619	-111.417215
7.500000	-0.232606	-104.331495	-55.466292	-35.637887	-55.466292	-35.637887	-0.251207	-112.095063
7.550000	-0.236026	-104.956592	-55.598440	-40.829676	-55.598440	-40.829676	-0.254895	-112.771955
7.600000	-0.239448	-105.581689	-55.732631	-46.021464	-55.732631	-46.021464	-0.258585	-113.448846
7.650000	-0.242954	-106.205625	-55.972164	-50.330634	-55.972164	-50.330634	-0.262367	-114.124945
7.700000	-0.246469	-106.829456	-56.228209	-54.559565	-56.228209	-54.559565	-0.266160	-114.800971
7.750000	-0.250060	-107.452291	-56.494068	-57.111518	-56.494068	-57.111518	-0.270039	-115.476353
7.800000	-0.253669	-108.074927	-56.768742	-59.328074	-56.768742	-59.328074	-0.273936	-116.151606
7.850000	-0.257347	-108.696725	-56.797928	-59.981467	-56.797928	-59.981467	-0.277912	-116.826350
7.900000	-0.261050	-109.318243	-56.743743	-60.113807	-56.743743	-60.113807	-0.281915	-117.500924
7.950000	-0.264801	-109.939236	-56.410030	-60.436386	-56.410030	-60.436386	-0.285972	-118.175199
8.000000	-0.268606	-110.559655	-55.827352	-61.718501	-55.827352	-61.718501	-0.290089	-118.849158
8.050000	-0.272457	-111.179611	-55.158749	-64.415799	-55.158749	-64.415799	-0.294259	-119.522875
8.100000	-0.276354	-111.799124	-54.510245	-68.399542	-54.510245	-68.399542	-0.298480	-120.196375
8.150000	-0.280298	-112.418216	-53.942172	-73.290192	-53.942172	-73.290192	-0.302754	-120.869680
8.200000	-0.284289	-113.036910	-53.473539	-78.692942	-53.473539	-78.692942	-0.307081	-121.542814
8.250000	-0.288327	-113.655229	-53.099086	-84.305933	-53.099086	-84.305933	-0.311461	-122.215800
8.300000	-0.292411	-114.273199	-52.803533	-89.934053	-52.803533	-89.934053	-0.315894	-122.888664
8.350000	-0.296546	-114.890828	-52.571785	-95.455796	-52.571785	-95.455796	-0.320383	-123.561425
8.400000	-0.300719	-115.508211	-52.380334	-100.857930	-52.380334	-100.857930	-0.324916	-124.234121
8.450000	-0.304954	-116.125245	-52.230961	-106.028301	-52.230961	-106.028301	-0.329520	-124.906755
8.500000	-0.309230	-116.742086	-52.099947	-111.048789	-52.099947	-111.048789	-0.334169	-125.579377
8.550000	-0.313547	-117.358749	-51.983851	-115.922846	-51.983851	-115.922846	-0.338865	-126.251997
8.600000	-0.317919	-117.975209	-51.880202	-120.609754	-51.880202	-120.609754	-0.343623	-126.924644
8.650000	-0.322343	-118.591535	-51.781887	-125.143634	-51.781887	-125.143634	-0.348440	-127.597357
8.700000	-0.326808	-119.207787	-51.685771	-129.568652	-51.685771	-129.568652	-0.353304	-128.270141
8.750000	-0.331316	-119.823984	-51.590607	-133.891310	-51.590607	-133.891310	-0.358214	-128.943008
8.800000	-0.335890	-120.440181	-51.492551	-138.074915	-51.492551	-138.074915	-0.363200	-129.616064
8.850000	-0.340508	-121.056440	-51.391597	-142.190024	-51.391597	-142.190024	-0.368232	-130.289267
8.900000	-0.345177	-121.672830	-51.286384	-146.235350	-51.286384	-146.235350	-0.373319	-130.962670
8.950000	-0.349928	-122.289535	-51.172380	-150.188996	-51.172380	-150.188996	-0.378492	-131.636439
9.000000	-0.354682	-122.906239	-51.059853	-154.142642	-51.059853	-154.142642	-0.383669	-132.310208
9.050000	-0.359505	-123.523426	-50.940050	-158.061112	-50.940050	-158.061112	-0.388913	-132.984339
9.100000	-0.364414	-124.141215	-50.811142	-161.935610	-50.811142	-161.935610	-0.394239	-133.658923
9.150000	-0.369325	-124.759004	-50.684119	-165.810109	-50.684119	-165.810109	-0.399568	-134.333507
9.200000	-0.374358	-125.378148	-50.546381	-169.690481	-50.546381	-169.690481	-0.404995	-135.008786
9.250000	-0.379453	-125.997969	-50.404625	-173.573791	-50.404625	-173.573791	-0.410473	-135.684412
9.300000	-0.384552	-126.617790	-50.265145	-177.457101	-50.265145	-177.457101	-0.415954	-136.360039
9.350000	-0.389876	-127.240830	-50.115538	178.578725	-50.115538	178.578725	-0.421563	-137.036798
9.400000	-0.395232	-127.864271	-49.966949	174.604443	-49.966949	174.604443	-0.427191	-137.713699
9.450000	-0.400621	-128.488166	-49.820341	170.618275	-49.820341	170.618275	-0.432834	-138.390715
9.500000	-0.406253	-129.115689	-49.672085	166.537016	-49.672085	166.537016	-0.438568	-139.068649
9.550000	-0.412121	-129.746563	-49.526908	162.380409	-49.526908	162.380409	-0.444360	-139.747216
9.600000	-0.418286	-130.381348	-49.386973	158.150553	-49.386973	158.150553	-0.450204	-140.426368
9.650000	-0.424875	-131.021223	-49.254410	153.843446	-49.254410	153.843446	-0.456100	-141.106120
9.700000	-0.432102	-131.667835	-49.131501	149.456887	-49.131501	149.456887	-0.462048	-141.786479
9.750000	-0.440333	-132.323509	-49.020650	144.990760	-49.020650	144.990760	-0.468051	-142.467426
9.800000	-0.450211	-132.991488	-48.924347	140.447300	-48.924347	140.447300	-0.474113	-143.148893
9.850000	-0.462864	-133.676198	-48.845134	135.831339	-48.845134	135.831339	-0.480246	-143.830705
9.900000	-0.482701	-134.388313	-48.789570	131.142234	-48.789570	131.142234	-0.486576	-144.511784
9.950000	-0.515065	-135.117938	-48.754421	126.409810	-48.754421	126.409810	-0.494546	-145.189428
10.000000	-0.577390	-135.796370	-48.745673	121.640069	-48.745673	121.640069	-0.499620	-145.900604
