! freq	dB(S11)	phase(S11)	dB(S12)	phase(S12)	
!     	dB(S21)	phase(S21)	dB(S22)	phase(S22)	
!S-par simulation data
#  GHz  S  DB  R 50
0.000000	-0.000000	0.000000	-362.272295	0.000000	-362.272295	0.000000	-0.000000	0.000000
0.050000	-0.001368	-1.028645	-107.192764	86.595627	-107.192764	86.595627	-0.001278	-1.155709
0.100000	-0.004100	-2.069513	-101.455047	83.971404	-101.455047	83.971404	-0.004021	-2.322250
0.150000	-0.006580	-3.120083	-98.281089	82.395252	-98.281089	82.395252	-0.006741	-3.498744
0.200000	-0.008469	-4.174357	-96.107182	81.592552	-96.107182	81.592552	-0.008948	-4.679873
0.250000	-0.009897	-5.229300	-94.453610	81.197793	-94.453610	81.197793	-0.010672	-5.862320
0.300000	-0.011087	-6.283688	-93.118566	80.906424	-93.118566	80.906424	-0.012116	-7.044411
0.350000	-0.012141	-7.337135	-92.017368	80.617584	-92.017368	80.617584	-0.013384	-8.225544
0.400000	-0.013133	-8.389494	-91.102501	80.302570	-91.102501	80.302570	-0.014562	-9.405422
0.450000	-0.014107	-9.440712	-90.344797	79.979369	-90.344797	79.979369	-0.015703	-10.583908
0.500000	-0.015091	-10.490763	-89.724462	79.684806	-89.724462	79.684806	-0.016840	-11.760924
0.550000	-0.016096	-11.539624	-89.227428	79.462926	-89.227428	79.462926	-0.017991	-12.936411
0.600000	-0.017132	-12.587270	-88.843632	79.362148	-88.843632	79.362148	-0.019167	-14.110312
0.650000	-0.018201	-13.633671	-88.566008	79.436583	-88.566008	79.436583	-0.020375	-15.282575
0.700000	-0.019304	-14.678795	-88.389763	79.749489	-88.389763	79.749489	-0.021616	-16.453142
0.750000	-0.020440	-15.722609	-88.311701	80.378257	-88.311701	80.378257	-0.022890	-17.621959
0.800000	-0.021608	-16.765079	-88.329418	81.421005	-88.329418	81.421005	-0.024196	-18.788970
0.850000	-0.022804	-17.806170	-88.440089	83.005023	-88.440089	83.005023	-0.025531	-19.954120
0.900000	-0.024027	-18.845848	-88.638409	85.296828	-88.638409	85.296828	-0.026893	-21.117356
0.950000	-0.025272	-19.884083	-88.912946	88.511761	-88.912946	88.511761	-0.028278	-22.278626
1.000000	-0.026538	-20.920842	-89.239855	92.915968	-89.239855	92.915968	-0.029685	-23.437880
1.050000	-0.027821	-21.956096	-89.573172	98.802692	-89.573172	98.802692	-0.031108	-24.595069
1.100000	-0.029118	-22.989816	-89.833483	106.408879	-89.833483	106.408879	-0.032546	-25.750147
1.150000	-0.030427	-24.021975	-89.904764	115.737071	-89.904764	115.737071	-0.033996	-26.903070
1.200000	-0.031746	-25.052546	-89.659791	126.321525	-89.659791	126.321525	-0.035455	-28.053795
1.250000	-0.033071	-26.081505	-89.022835	137.167980	-89.022835	137.167980	-0.036920	-29.202280
1.300000	-0.034403	-27.108755	-88.005461	147.056580	-88.005461	147.056580	-0.038390	-30.348384
1.350000	-0.035737	-28.134342	-86.744019	155.296299	-86.744019	155.296299	-0.039863	-31.492167
1.400000	-0.037074	-29.158245	-85.363874	161.752870	-85.363874	161.752870	-0.041336	-32.633592
1.450000	-0.038412	-30.180440	-83.956283	166.612497	-83.956283	166.612497	-0.042809	-33.772621
1.500000	-0.039749	-31.200905	-82.574673	170.165036	-82.574673	170.165036	-0.044279	-34.909221
1.550000	-0.041085	-32.219621	-81.245530	172.690682	-81.245530	172.690682	-0.045747	-36.043357
1.600000	-0.042420	-33.236565	-79.979428	174.421356	-79.979428	174.421356	-0.047212	-37.174996
1.650000	-0.043752	-34.251716	-78.778483	175.537016	-78.778483	175.537016	-0.048672	-38.304105
1.700000	-0.045081	-35.265055	-77.640667	176.173771	-77.640667	176.173771	-0.050128	-39.430653
1.750000	-0.046408	-36.276562	-76.562135	176.433893	-76.562135	176.433893	-0.051579	-40.554609
1.800000	-0.047732	-37.286215	-75.538421	176.394467	-75.538421	176.394467	-0.053026	-41.675942
1.850000	-0.049053	-38.293996	-74.565027	176.114063	-74.565027	176.114063	-0.054467	-42.794623
1.900000	-0.050372	-39.299885	-73.637697	175.637638	-73.637697	175.637638	-0.055904	-43.910624
1.950000	-0.051687	-40.303863	-72.752527	175.000090	-72.752527	175.000090	-0.057336	-45.023917
2.000000	-0.053001	-41.305910	-71.905992	174.228814	-71.905992	174.228814	-0.058764	-46.134475
2.050000	-0.054312	-42.306009	-71.094935	173.345554	-71.094935	173.345554	-0.060188	-47.242271
2.100000	-0.055622	-43.304141	-70.316539	172.367751	-70.316539	172.367751	-0.061609	-48.347280
2.150000	-0.056931	-44.300289	-69.568292	171.309533	-69.568292	171.309533	-0.063027	-49.449478
2.200000	-0.058240	-45.294433	-68.847954	170.182453	-68.847954	170.182453	-0.064443	-50.548841
2.250000	-0.059548	-46.286559	-68.153523	168.996040	-68.153523	168.996040	-0.065858	-51.645347
2.300000	-0.060857	-47.276648	-67.483204	167.758218	-67.483204	167.758218	-0.067271	-52.738973
2.350000	-0.062168	-48.264685	-66.835386	166.475626	-66.835386	166.475626	-0.068685	-53.829700
2.400000	-0.063480	-49.250654	-66.208618	165.153867	-66.208618	165.153867	-0.070098	-54.917507
2.450000	-0.064794	-50.234540	-65.601589	163.797698	-65.601589	163.797698	-0.071513	-56.002376
2.500000	-0.066111	-51.216329	-65.013110	162.411186	-65.013110	162.411186	-0.072930	-57.084290
2.550000	-0.067433	-52.195915	-64.441234	160.996801	-64.441234	160.996801	-0.074349	-58.163102
2.600000	-0.068758	-53.173375	-63.885945	159.558822	-63.885945	159.558822	-0.075772	-59.238926
2.650000	-0.070089	-54.148697	-63.346331	158.099828	-63.346331	158.099828	-0.077199	-60.311748
2.700000	-0.071426	-55.121870	-62.821559	156.622069	-62.821559	156.622069	-0.078631	-61.381556
2.750000	-0.072769	-56.092882	-62.310864	155.127523	-62.310864	155.127523	-0.080069	-62.448337
2.800000	-0.074118	-57.061723	-61.813542	153.617932	-61.813542	153.617932	-0.081513	-63.512082
2.850000	-0.075476	-58.028384	-61.328942	152.094838	-61.328942	152.094838	-0.082964	-64.572782
2.900000	-0.076842	-58.992856	-60.856464	150.559609	-60.856464	150.559609	-0.084424	-65.630429
2.950000	-0.078217	-59.955131	-60.395551	149.013463	-60.395551	149.013463	-0.085892	-66.685016
3.000000	-0.079602	-60.915203	-59.945687	147.457491	-59.945687	147.457491	-0.087369	-67.736539
3.050000	-0.080997	-61.873064	-59.506390	145.892668	-59.506390	145.892668	-0.088856	-68.784993
3.100000	-0.082403	-62.828710	-59.077213	144.319872	-59.077213	144.319872	-0.090355	-69.830376
3.150000	-0.083820	-63.782135	-58.657737	142.739893	-58.657737	142.739893	-0.091865	-70.872686
3.200000	-0.085250	-64.733337	-58.247570	141.153448	-58.247570	141.153448	-0.093387	-71.911923
3.250000	-0.086692	-65.682312	-57.846347	139.561183	-57.846347	139.561183	-0.094922	-72.948088
3.300000	-0.088148	-66.629058	-57.453722	137.963686	-57.453722	137.963686	-0.096470	-73.981183
3.350000	-0.089618	-67.573575	-57.069373	136.361494	-57.069373	136.361494	-0.098033	-75.011213
3.400000	-0.091102	-68.515861	-56.692995	134.755094	-56.692995	134.755094	-0.099610	-76.038182
3.450000	-0.092601	-69.455918	-56.324302	133.144932	-56.324302	133.144932	-0.101203	-77.062096
3.500000	-0.094117	-70.393748	-55.963022	131.531418	-55.963022	131.531418	-0.102812	-78.082962
3.550000	-0.095648	-71.329352	-55.608901	129.914927	-55.608901	129.914927	-0.104438	-79.100789
3.600000	-0.097196	-72.262733	-55.261695	128.295804	-55.261695	128.295804	-0.106081	-80.115587
3.650000	-0.098762	-73.193897	-54.921178	126.674367	-54.921178	126.674367	-0.107742	-81.127367
3.700000	-0.100345	-74.122848	-54.587130	125.050909	-54.587130	125.050909	-0.109422	-82.136140
3.750000	-0.101947	-75.049591	-54.259346	123.425700	-54.259346	123.425700	-0.111120	-83.141920
3.800000	-0.103569	-75.974039	-53.937378	121.798938	-53.937378	121.798938	-0.112839	-84.144592
3.850000	-0.105211	-76.896295	-53.621313	120.170929	-53.621313	120.170929	-0.114578	-85.144303
3.900000	-0.106872	-77.816367	-53.310973	118.541886	-53.310973	118.541886	-0.116338	-86.141069
3.950000	-0.108554	-78.734265	-53.006187	116.912009	-53.006187	116.912009	-0.118119	-87.134907
4.000000	-0.110258	-79.650000	-52.706794	115.281482	-52.706794	115.281482	-0.119922	-88.125838
4.050000	-0.111983	-80.563582	-52.412637	113.650480	-52.412637	113.650480	-0.121748	-89.113881
4.100000	-0.113730	-81.475023	-52.123568	112.019163	-52.123568	112.019163	-0.123596	-90.099057
4.150000	-0.115500	-82.384336	-51.839448	110.387682	-51.839448	110.387682	-0.125467	-91.081387
4.200000	-0.117293	-83.291535	-51.560139	108.756178	-51.560139	108.756178	-0.127363	-92.060896
4.250000	-0.119109	-84.196633	-51.285514	107.124785	-51.285514	107.124785	-0.129282	-93.037607
4.300000	-0.120950	-85.099647	-51.015446	105.493626	-51.015446	105.493626	-0.131227	-94.011545
4.350000	-0.122815	-86.000591	-50.749818	103.862819	-50.749818	103.862819	-0.133197	-94.982735
4.400000	-0.124706	-86.899484	-50.488516	102.232473	-50.488516	102.232473	-0.135192	-95.951206
4.450000	-0.126622	-87.796341	-50.231429	100.602692	-50.231429	100.602692	-0.137214	-96.916984
4.500000	-0.128564	-88.691181	-49.978452	98.973572	-49.978452	98.973572	-0.139262	-97.880099
4.550000	-0.130533	-89.584024	-49.729484	97.345206	-49.729484	97.345206	-0.141337	-98.840580
4.600000	-0.132529	-90.474889	-49.484428	95.717680	-49.484428	95.717680	-0.143440	-99.798456
4.650000	-0.134552	-91.363795	-49.243190	94.091076	-49.243190	94.091076	-0.145571	-100.753760
4.700000	-0.136603	-92.250766	-49.005680	92.465470	-49.005680	92.465470	-0.147731	-101.706523
4.750000	-0.138683	-93.135822	-48.771810	90.840937	-48.771810	90.840937	-0.149919	-102.656779
4.800000	-0.140791	-94.018985	-48.541497	89.217543	-48.541497	89.217543	-0.152136	-103.604560
4.850000	-0.142929	-94.900280	-48.314661	87.595355	-48.314661	87.595355	-0.154383	-104.549901
4.900000	-0.145096	-95.779730	-48.091222	85.974434	-48.091222	85.974434	-0.156660	-105.492837
4.950000	-0.147294	-96.657359	-47.871105	84.354839	-47.871105	84.354839	-0.158968	-106.433404
5.000000	-0.149523	-97.533194	-47.654239	82.736623	-47.654239	82.736623	-0.161306	-107.371638
5.050000	-0.151784	-98.407183	-47.440462	81.119905	-47.440462	81.119905	-0.163677	-108.307479
5.100000	-0.154077	-99.279432	-47.229803	79.504672	-47.229803	79.504672	-0.166080	-109.241066
5.150000	-0.156401	-100.149968	-47.022197	77.890972	-47.022197	77.890972	-0.168515	-110.172437
5.200000	-0.158759	-101.018819	-46.817580	76.278847	-46.817580	76.278847	-0.170982	-111.101631
5.250000	-0.161149	-101.886014	-46.615889	74.668339	-46.615889	74.668339	-0.173482	-112.028690
5.300000	-0.163573	-102.751581	-46.417064	73.059487	-46.417064	73.059487	-0.176015	-112.953652
5.350000	-0.166031	-103.615550	-46.221047	71.452327	-46.221047	71.452327	-0.178582	-113.876559
5.400000	-0.168523	-104.477952	-46.027783	69.846895	-46.027783	69.846895	-0.181183	-114.797453
5.450000	-0.171050	-105.338817	-45.837216	68.243222	-45.837216	68.243222	-0.183817	-115.716375
5.500000	-0.173612	-106.198176	-45.649293	66.641340	-45.649293	66.641340	-0.186487	-116.633369
5.550000	-0.176210	-107.056063	-45.463963	65.041277	-45.463963	65.041277	-0.189192	-117.548478
5.600000	-0.178844	-107.912509	-45.281176	63.443061	-45.281176	63.443061	-0.191932	-118.461745
5.650000	-0.181514	-108.767547	-45.100885	61.846716	-45.100885	61.846716	-0.194707	-119.373216
5.700000	-0.184222	-109.621212	-44.923042	60.252267	-44.923042	60.252267	-0.197519	-120.282933
5.750000	-0.186966	-110.473536	-44.747601	58.659734	-44.747601	58.659734	-0.200367	-121.190944
5.800000	-0.189749	-111.324556	-44.574519	57.069140	-44.574519	57.069140	-0.203251	-122.097294
5.850000	-0.192577	-112.174096	-44.403576	55.480847	-44.403576	55.480847	-0.206179	-123.001761
5.900000	-0.195444	-113.022350	-44.234870	53.894615	-44.234870	53.894615	-0.209146	-123.904594
5.950000	-0.198333	-113.869993	-44.068882	52.309428	-44.068882	52.309428	-0.212133	-124.806651
6.000000	-0.201283	-114.715807	-43.904544	50.727374	-43.904544	50.727374	-0.215179	-125.706386
6.050000	-0.204248	-115.561241	-43.742958	49.146026	-43.742958	49.146026	-0.218239	-126.605639
6.100000	-0.207282	-116.404777	-43.582850	47.568207	-43.582850	47.568207	-0.221365	-127.502485
6.150000	-0.210325	-117.248138	-43.425505	45.990745	-43.425505	45.990745	-0.224499	-128.399108
6.200000	-0.213445	-118.089566	-43.269496	44.417207	-43.269496	44.417207	-0.227707	-129.293280
6.250000	-0.216566	-118.930993	-43.116240	42.843670	-43.116240	42.843670	-0.230915	-130.187451
6.300000	-0.219774	-119.770484	-42.964206	41.274450	-42.964206	41.274450	-0.234206	-131.079166
6.350000	-0.222983	-120.609975	-42.814787	39.705231	-42.814787	39.705231	-0.237497	-131.970880
6.400000	-0.226273	-121.447853	-42.666720	38.139995	-42.666720	38.139995	-0.240865	-132.860544
6.450000	-0.229571	-122.285584	-42.521029	36.575120	-42.521029	36.575120	-0.244240	-133.750022
6.500000	-0.232945	-123.121999	-42.376792	35.013883	-42.376792	35.013883	-0.247686	-134.637822
6.550000	-0.236334	-123.958150	-42.234725	33.453373	-42.234725	33.453373	-0.251146	-135.525287
6.600000	-0.239793	-124.793256	-42.094192	31.896145	-42.094192	31.896145	-0.254671	-136.411412
6.650000	-0.243276	-125.628013	-41.955651	30.340011	-41.955651	30.340011	-0.258218	-137.297092
6.700000	-0.246821	-126.461967	-41.818703	28.786798	-41.818703	28.786798	-0.261822	-138.181734
6.750000	-0.250398	-127.295519	-41.683595	27.235045	-41.683595	27.235045	-0.265456	-139.065857
6.800000	-0.254031	-128.128481	-41.550119	25.685847	-41.550119	25.685847	-0.269141	-139.949209
6.850000	-0.257705	-128.961021	-41.418357	24.138474	-41.418357	24.138474	-0.272863	-140.832010
6.900000	-0.261427	-129.793154	-41.288249	22.593290	-41.288249	22.593290	-0.276630	-141.714267
6.950000	-0.265199	-130.624879	-41.159751	21.050293	-41.159751	21.050293	-0.280441	-142.595981
7.000000	-0.269012	-131.456349	-41.032912	19.509115	-41.032912	19.509115	-0.284290	-143.477341
7.050000	-0.272883	-132.287461	-40.907602	17.970485	-40.907602	17.970485	-0.288191	-144.358207
7.100000	-0.276780	-133.118462	-40.783968	16.432945	-40.783968	16.432945	-0.292115	-145.238910
7.150000	-0.280741	-133.949198	-40.661810	14.898218	-40.661810	14.898218	-0.296097	-146.119219
7.200000	-0.284752	-134.779801	-40.541186	13.365574	-40.541186	13.365574	-0.300123	-146.999310
7.250000	-0.288811	-135.610320	-40.422077	11.835011	-40.422077	11.835011	-0.304193	-147.879240
7.300000	-0.292920	-136.440803	-40.304465	10.306525	-40.304465	10.306525	-0.308307	-148.759065
7.350000	-0.297079	-137.271299	-40.188335	8.780114	-40.188335	8.780114	-0.312465	-149.638842
7.400000	-0.301288	-138.101859	-40.073669	7.255774	-40.073669	7.255774	-0.316667	-150.518627
7.450000	-0.305548	-138.932532	-39.960452	5.733503	-39.960452	5.733503	-0.320913	-151.398478
7.500000	-0.309858	-139.763369	-39.848668	4.213298	-39.848668	4.213298	-0.325203	-152.278451
7.550000	-0.314222	-140.594432	-39.738304	2.695247	-39.738304	2.695247	-0.329540	-153.158616
7.600000	-0.318637	-141.425766	-39.629348	1.179257	-39.629348	1.179257	-0.333921	-154.039025
7.650000	-0.323103	-142.257423	-39.521784	-0.334673	-39.521784	-0.334673	-0.338347	-154.919736
7.700000	-0.327621	-143.089454	-39.415601	-1.846544	-39.415601	-1.846544	-0.342817	-155.800808
7.750000	-0.332192	-143.921914	-39.310785	-3.356356	-39.310785	-3.356356	-0.347332	-156.682299
7.800000	-0.336814	-144.754854	-39.207326	-4.864111	-39.207326	-4.864111	-0.351892	-157.564268
7.850000	-0.341489	-145.588329	-39.105210	-6.369807	-39.105210	-6.369807	-0.356496	-158.446774
7.900000	-0.346217	-146.422392	-39.004428	-7.873444	-39.004428	-7.873444	-0.361145	-159.329878
7.950000	-0.350998	-147.257099	-38.904970	-9.375019	-38.904970	-9.375019	-0.365838	-160.213638
8.000000	-0.355832	-148.092504	-38.806823	-10.874530	-38.806823	-10.874530	-0.370575	-161.098114
8.050000	-0.360719	-148.928663	-38.709980	-12.371973	-38.709980	-12.371973	-0.375357	-161.983366
8.100000	-0.365660	-149.765632	-38.614432	-13.867344	-38.614432	-13.867344	-0.380184	-162.869456
8.150000	-0.370654	-150.603466	-38.520168	-15.360638	-38.520168	-15.360638	-0.385054	-163.756442
8.200000	-0.375701	-151.442223	-38.427181	-16.851847	-38.427181	-16.851847	-0.389968	-164.644387
8.250000	-0.380803	-152.281961	-38.335464	-18.340966	-38.335464	-18.340966	-0.394927	-165.533351
8.300000	-0.385959	-153.122736	-38.245007	-19.827984	-38.245007	-19.827984	-0.399929	-166.423394
8.350000	-0.391168	-153.964608	-38.155805	-21.312894	-38.155805	-21.312894	-0.404974	-167.314579
8.400000	-0.396431	-154.807634	-38.067851	-22.795683	-38.067851	-22.795683	-0.410063	-168.206968
8.450000	-0.401749	-155.651875	-37.981137	-24.276340	-37.981137	-24.276340	-0.415195	-169.100621
8.500000	-0.407120	-156.497389	-37.895658	-25.754851	-37.895658	-25.754851	-0.420369	-169.995600
8.550000	-0.412546	-157.344237	-37.811408	-27.231202	-37.811408	-27.231202	-0.425586	-170.891968
8.600000	-0.418026	-158.192479	-37.728381	-28.705377	-37.728381	-28.705377	-0.430846	-171.789788
8.650000	-0.423559	-159.042177	-37.646573	-30.177357	-37.646573	-30.177357	-0.436147	-172.689120
8.700000	-0.429147	-159.893391	-37.565977	-31.647125	-37.565977	-31.647125	-0.441490	-173.590029
8.750000	-0.434788	-160.746184	-37.486590	-33.114660	-37.486590	-33.114660	-0.446873	-174.492576
8.800000	-0.440485	-161.600694	-37.408429	-34.579840	-37.408429	-34.579840	-0.452299	-175.396902
8.850000	-0.446236	-162.456913	-37.331469	-36.042740	-37.331469	-36.042740	-0.457765	-176.302997
8.900000	-0.452040	-163.314906	-37.255706	-37.503334	-37.255706	-37.503334	-0.463271	-177.210927
8.950000	-0.457897	-164.174736	-37.181136	-38.961595	-37.181136	-38.961595	-0.468816	-178.120753
9.000000	-0.463807	-165.036468	-37.107756	-40.417495	-37.107756	-40.417495	-0.474400	-179.032538
9.050000	-0.469770	-165.900168	-37.035561	-41.871005	-37.035561	-41.871005	-0.480022	-179.946347
9.100000	-0.475785	-166.765900	-36.964549	-43.322091	-36.964549	-43.322091	-0.485681	179.137757
9.150000	-0.481852	-167.633730	-36.894717	-44.770722	-36.894717	-44.770722	-0.491377	178.219710
9.200000	-0.487971	-168.503724	-36.826060	-46.216863	-36.826060	-46.216863	-0.497108	177.299450
9.250000	-0.494141	-169.375950	-36.758576	-47.660476	-36.758576	-47.660476	-0.502876	176.376912
9.300000	-0.500361	-170.250475	-36.692262	-49.101525	-36.692262	-49.101525	-0.508678	175.452033
9.350000	-0.506632	-171.127366	-36.627115	-50.539968	-36.627115	-50.539968	-0.514513	174.524748
9.400000	-0.512953	-172.006692	-36.563133	-51.975766	-36.563133	-51.975766	-0.520382	173.594995
9.450000	-0.519324	-172.888522	-36.500311	-53.408875	-36.500311	-53.408875	-0.526282	172.662710
9.500000	-0.525742	-173.772924	-36.438649	-54.839251	-36.438649	-54.839251	-0.532214	171.727829
9.550000	-0.532209	-174.659968	-36.378142	-56.266848	-36.378142	-56.266848	-0.538176	170.790288
9.600000	-0.538724	-175.549723	-36.318788	-57.691618	-36.318788	-57.691618	-0.544167	169.850024
9.650000	-0.545285	-176.442262	-36.260584	-59.113512	-36.260584	-59.113512	-0.550186	168.906974
9.700000	-0.551891	-177.337654	-36.203528	-60.532481	-36.203528	-60.532481	-0.556232	167.961074
9.750000	-0.558543	-178.235970	-36.147615	-61.948471	-36.147615	-61.948471	-0.562304	167.012261
9.800000	-0.565239	-179.137283	-36.092845	-63.361430	-36.092845	-63.361430	-0.568400	166.060472
9.850000	-0.571978	179.958336	-36.039212	-64.771304	-36.039212	-64.771304	-0.574520	165.105646
9.900000	-0.578760	179.050813	-35.986715	-66.178036	-35.986715	-66.178036	-0.580662	164.147718
9.950000	-0.585583	178.140077	-35.935350	-67.581569	-35.935350	-67.581569	-0.586824	163.186626
10.000000	-0.592445	177.226054	-35.885114	-68.981846	-35.885114	-68.981846	-0.593006	162.222310
