! freq	dB(S11)	phase(S11)	dB(S12)	phase(S12)	
!     	dB(S21)	phase(S21)	dB(S22)	phase(S22)	
!S-par simulation data
#  GHz  S  DB  R 50
0.000000	-0.000000	0.000000	-334.593748	0.000000	-334.593748	0.000000	-0.000000	0.000000
0.050000	-0.000085	-0.816499	-115.385548	164.170947	-115.385548	164.170947	-0.000085	-0.816477
0.100000	-0.000339	-1.632822	-109.470537	130.543979	-109.470537	130.543979	-0.000338	-1.632779
0.150000	-0.000753	-2.448800	-106.045065	116.537840	-106.045065	116.537840	-0.000751	-2.448738
0.200000	-0.001317	-3.264288	-103.664723	108.842613	-103.664723	108.842613	-0.001314	-3.264209
0.250000	-0.002026	-4.079111	-101.880090	104.030733	-101.880090	104.030733	-0.002021	-4.079017
0.300000	-0.002851	-4.893214	-100.479998	100.569808	-100.479998	100.569808	-0.002844	-4.893109
0.350000	-0.003782	-5.706483	-99.360504	98.012551	-99.360504	98.012551	-0.003773	-5.706369
0.400000	-0.004802	-6.518849	-98.458372	96.072518	-98.458372	96.072518	-0.004792	-6.518729
0.450000	-0.005895	-7.330264	-97.733902	94.603105	-97.733902	94.603105	-0.005884	-7.330140
0.500000	-0.007045	-8.140698	-97.161175	93.532094	-97.161175	93.532094	-0.007032	-8.140573
0.550000	-0.008238	-8.950139	-96.722951	92.833005	-96.722951	92.833005	-0.008224	-8.950012
0.600000	-0.009461	-9.758583	-96.407749	92.512605	-96.407749	92.512605	-0.009446	-9.758456
0.650000	-0.010702	-10.566039	-96.207972	92.606751	-96.207972	92.606751	-0.010688	-10.565913
0.700000	-0.011953	-11.372520	-96.118468	93.181493	-96.118468	93.181493	-0.011938	-11.372395
0.750000	-0.013205	-12.178046	-96.135045	94.338281	-96.135045	94.338281	-0.013191	-12.177920
0.800000	-0.014453	-12.982635	-96.252425	96.222623	-96.252425	96.222623	-0.014440	-12.982509
0.850000	-0.015692	-13.786307	-96.460830	99.034562	-96.460830	99.034562	-0.015679	-13.786179
0.900000	-0.016919	-14.589081	-96.740053	103.035238	-96.740053	103.035238	-0.016906	-14.588951
0.950000	-0.018130	-15.390973	-97.049706	108.533372	-97.049706	108.533372	-0.018118	-15.390840
1.000000	-0.019324	-16.191998	-97.316166	115.817088	-97.316166	115.817088	-0.019314	-16.191860
1.050000	-0.020502	-16.992166	-97.423986	124.985782	-97.423986	124.985782	-0.020492	-16.992023
1.100000	-0.021661	-17.791485	-97.232858	135.692614	-97.232858	135.692614	-0.021653	-17.791335
1.150000	-0.022804	-18.589959	-96.638963	146.993879	-96.638963	146.993879	-0.022797	-18.589801
1.200000	-0.023930	-19.387590	-95.645582	157.634040	-95.645582	157.634040	-0.023923	-19.387424
1.250000	-0.025040	-20.184377	-94.361167	166.669330	-94.361167	166.669330	-0.025034	-20.184202
1.300000	-0.026134	-20.980279	-92.912621	173.714206	-92.912621	173.714206	-0.026130	-20.980095
1.350000	-0.027215	-21.775326	-91.426778	179.024772	-91.426778	179.024772	-0.027212	-21.775132
1.400000	-0.028284	-22.569509	-89.966372	-177.077693	-89.966372	-177.077693	-0.028281	-22.569305
1.450000	-0.029341	-23.362819	-88.562029	-174.280931	-88.562029	-174.280931	-0.029339	-23.362604
1.500000	-0.030389	-24.155244	-87.225676	-172.328359	-87.225676	-172.328359	-0.030388	-24.155018
1.550000	-0.031428	-24.946769	-85.959512	-171.022839	-85.959512	-171.022839	-0.031427	-24.946532
1.600000	-0.032460	-25.737382	-84.761094	-170.216786	-84.761094	-170.216786	-0.032459	-25.737134
1.650000	-0.033485	-26.527067	-83.626018	-169.800396	-83.626018	-169.800396	-0.033485	-26.526808
1.700000	-0.034504	-27.315472	-82.523640	-169.770141	-82.523640	-169.770141	-0.034504	-27.315202
1.750000	-0.035521	-28.103378	-81.511593	-169.877863	-81.511593	-169.877863	-0.035521	-28.103098
1.800000	-0.036534	-28.890086	-80.532691	-170.209819	-80.532691	-170.209819	-0.036535	-28.889796
1.850000	-0.037545	-29.675937	-79.606504	-170.701941	-79.606504	-170.701941	-0.037545	-29.675637
1.900000	-0.038554	-30.460724	-78.717597	-171.322628	-78.717597	-171.322628	-0.038555	-30.460414
1.950000	-0.039563	-31.244444	-77.864124	-172.071878	-77.864124	-172.071878	-0.039564	-31.244125
2.000000	-0.040572	-32.027244	-77.050095	-172.895737	-77.050095	-172.895737	-0.040573	-32.026917
2.050000	-0.041582	-32.808757	-76.258591	-173.824049	-76.258591	-173.824049	-0.041583	-32.808420
2.100000	-0.042593	-33.589507	-75.507656	-174.795337	-75.507656	-174.795337	-0.042593	-33.589163
2.150000	-0.043607	-34.368734	-74.769477	-175.852577	-74.769477	-175.852577	-0.043607	-34.368382
2.200000	-0.044622	-35.147372	-74.072380	-176.933673	-74.072380	-176.933673	-0.044622	-35.147012
2.250000	-0.045641	-35.924239	-73.380561	-178.086338	-73.380561	-178.086338	-0.045642	-35.923873
2.300000	-0.046663	-36.700701	-72.729939	-179.251046	-72.729939	-179.251046	-0.046663	-36.700329
2.350000	-0.047691	-37.475136	-72.078820	179.524029	-72.078820	179.524029	-0.047691	-37.474758
2.400000	-0.048720	-38.249363	-71.468741	178.294456	-71.468741	178.294456	-0.048719	-38.248979
2.450000	-0.049758	-39.021296	-70.853671	177.013761	-70.853671	177.013761	-0.049757	-39.020907
2.500000	-0.050796	-39.793229	-70.279290	175.733065	-70.279290	175.733065	-0.050795	-39.792835
2.550000	-0.051846	-40.562595	-69.696405	174.408637	-69.696405	174.408637	-0.051845	-40.562196
2.600000	-0.052895	-41.331960	-69.150188	173.084209	-69.150188	173.084209	-0.052895	-41.331557
2.650000	-0.053957	-42.098914	-68.599775	171.727926	-68.599775	171.727926	-0.053956	-42.098507
2.700000	-0.055020	-42.865649	-68.079050	170.368746	-68.079050	170.368746	-0.055019	-42.865238
2.750000	-0.056094	-43.630144	-67.557679	168.986295	-67.557679	168.986295	-0.056094	-43.629730
2.800000	-0.057172	-44.394190	-67.060161	167.599190	-67.060161	167.599190	-0.057171	-44.393773
2.850000	-0.058260	-45.156179	-66.564935	166.195097	-66.564935	166.195097	-0.058260	-45.155759
2.900000	-0.059353	-45.917482	-66.088651	164.785342	-66.088651	164.785342	-0.059353	-45.917059
2.950000	-0.060457	-46.676923	-65.617098	163.363245	-65.617098	163.363245	-0.060457	-46.676498
3.000000	-0.061567	-47.435433	-65.160333	161.934976	-65.160333	161.934976	-0.061566	-47.435005
3.050000	-0.062687	-48.192287	-64.710325	160.497822	-64.710325	160.497822	-0.062686	-48.191857
3.100000	-0.063815	-48.947957	-64.271578	159.054323	-64.271578	159.054323	-0.063814	-48.947525
3.150000	-0.064952	-49.702187	-63.841271	157.604525	-63.841271	157.604525	-0.064952	-49.701753
3.200000	-0.066099	-50.454976	-63.419218	156.148429	-63.419218	156.148429	-0.066099	-50.454540
3.250000	-0.067254	-51.206549	-63.007002	154.687975	-63.007002	154.687975	-0.067254	-51.206112
3.300000	-0.068422	-51.956419	-62.600472	153.221420	-62.600472	153.221420	-0.068422	-51.955980
3.350000	-0.069597	-52.705306	-62.204933	151.751959	-62.204933	151.751959	-0.069597	-52.704865
3.400000	-0.070786	-53.452223	-61.812880	150.276689	-61.812880	150.276689	-0.070786	-53.451781
3.450000	-0.071981	-54.198395	-61.432770	148.799600	-61.432770	148.799600	-0.071982	-54.197952
3.500000	-0.073193	-54.942331	-61.054258	147.317054	-61.054258	147.317054	-0.073194	-54.941886
3.550000	-0.074410	-55.685765	-60.688469	145.833495	-60.688469	145.833495	-0.074411	-55.685319
3.600000	-0.075647	-56.426693	-60.322658	144.344866	-60.322658	144.344866	-0.075648	-56.426246
3.650000	-0.076886	-57.167368	-59.970199	142.855814	-59.970199	142.855814	-0.076888	-57.166920
3.700000	-0.078150	-57.905267	-59.616330	141.362099	-59.616330	141.362099	-0.078151	-57.904818
3.750000	-0.079413	-58.643165	-59.276315	139.868383	-59.276315	139.868383	-0.079415	-58.642715
3.800000	-0.080704	-59.378017	-58.933700	138.370417	-58.933700	138.370417	-0.080706	-59.377566
3.850000	-0.081994	-60.112868	-58.604089	136.872451	-58.604089	136.872451	-0.081997	-60.112416
3.900000	-0.083312	-60.844914	-58.273348	135.371235	-58.273348	135.371235	-0.083314	-60.844461
3.950000	-0.084632	-61.576704	-57.953586	133.869724	-57.953586	133.869724	-0.084635	-61.576251
4.000000	-0.085978	-62.305935	-57.633983	132.365759	-57.633983	132.365759	-0.085981	-62.305482
4.050000	-0.087329	-63.034654	-57.323564	130.861302	-57.323564	130.861302	-0.087332	-63.034200
4.100000	-0.088705	-63.761065	-57.014432	129.355019	-57.014432	129.355019	-0.088708	-63.760611
4.150000	-0.090088	-64.486706	-56.712893	127.848128	-56.712893	127.848128	-0.090091	-64.486251
4.200000	-0.091495	-65.210293	-56.413627	126.339907	-56.413627	126.339907	-0.091498	-65.209838
4.250000	-0.092914	-65.932853	-56.120539	124.831020	-56.120539	124.831020	-0.092917	-65.932399
4.300000	-0.094353	-66.653615	-55.830587	123.321191	-55.830587	123.321191	-0.094356	-66.653162
4.350000	-0.095808	-67.373094	-55.545558	121.810687	-55.545558	121.810687	-0.095811	-67.372641
4.400000	-0.097282	-68.091034	-55.264416	120.299540	-55.264416	120.299540	-0.097285	-68.090582
4.450000	-0.098775	-68.807436	-54.987082	118.787749	-54.987082	118.787749	-0.098778	-68.806985
4.500000	-0.100284	-69.522559	-54.714287	117.275542	-54.714287	117.275542	-0.100287	-69.522109
4.550000	-0.101818	-70.235890	-54.444313	115.762752	-54.444313	115.762752	-0.101820	-70.235442
4.600000	-0.103365	-70.948202	-54.179441	114.249713	-54.179441	114.249713	-0.103368	-70.947755
4.650000	-0.104941	-71.658473	-53.916514	112.736177	-53.916514	112.736177	-0.104943	-71.658029
4.700000	-0.106527	-72.367983	-53.659173	111.222511	-53.659173	111.222511	-0.106530	-72.367541
4.750000	-0.108147	-73.075208	-53.403004	109.708456	-53.403004	109.708456	-0.108149	-73.074769
4.800000	-0.109775	-73.781928	-53.152834	108.194348	-53.152834	108.194348	-0.109777	-73.781492
4.850000	-0.111441	-74.486123	-52.903154	106.679976	-52.903154	106.679976	-0.111443	-74.485691
4.900000	-0.113111	-75.190067	-52.659820	105.165592	-52.659820	105.165592	-0.113113	-75.189639
4.950000	-0.114826	-75.891252	-52.416376	103.651086	-52.416376	103.651086	-0.114827	-75.890828
5.000000	-0.116540	-76.592437	-52.179570	102.136580	-52.179570	102.136580	-0.116541	-76.592017
5.050000	-0.118305	-77.290634	-51.942126	100.622108	-51.942126	100.622108	-0.118306	-77.290219
5.100000	-0.120070	-77.988831	-51.711001	99.107636	-51.711001	99.107636	-0.120071	-77.988422
5.150000	-0.121883	-78.684313	-51.479895	97.593337	-51.479895	97.593337	-0.121884	-78.683910
5.200000	-0.123701	-79.379548	-51.254250	96.079053	-51.254250	96.079053	-0.123701	-79.379151
5.250000	-0.125563	-80.072338	-51.029208	94.565045	-51.029208	94.565045	-0.125563	-80.071949
5.300000	-0.127436	-80.764640	-50.808853	93.051093	-50.808853	93.051093	-0.127435	-80.764258
5.350000	-0.129350	-81.454765	-50.589618	91.537490	-50.589618	91.537490	-0.129349	-81.454391
5.400000	-0.131278	-82.144165	-50.374373	90.024003	-50.374373	90.024003	-0.131278	-82.143799
5.450000	-0.133246	-82.831654	-50.160708	88.510911	-50.160708	88.510911	-0.133245	-82.831296
5.500000	-0.135233	-83.518187	-49.950403	86.998016	-49.950403	86.998016	-0.135232	-83.517838
5.550000	-0.137255	-84.203069	-49.742082	85.485535	-49.742082	85.485535	-0.137254	-84.202730
5.600000	-0.139303	-84.886771	-49.536556	83.973350	-49.536556	83.973350	-0.139301	-84.886443
5.650000	-0.141381	-85.569079	-49.333368	82.461577	-49.333368	82.461577	-0.141380	-85.568762
5.700000	-0.143491	-86.249993	-49.132468	80.950215	-49.132468	80.950215	-0.143490	-86.249687
5.750000	-0.145628	-86.929762	-48.934214	79.439239	-48.934214	79.439239	-0.145626	-86.929467
5.800000	-0.147802	-87.607929	-48.737793	77.928806	-48.737793	77.928806	-0.147800	-87.607647
5.850000	-0.149998	-88.285196	-48.544286	76.418714	-48.544286	76.418714	-0.149997	-88.284926
5.900000	-0.152238	-88.960662	-48.352203	74.909308	-48.352203	74.909308	-0.152237	-88.960406
5.950000	-0.154496	-89.635466	-48.163265	73.400182	-48.163265	73.400182	-0.154494	-89.635224
6.000000	-0.156804	-90.308281	-47.975385	71.891895	-47.975385	71.891895	-0.156802	-90.308054
6.050000	-0.159124	-90.980663	-47.790848	70.383810	-47.790848	70.383810	-0.159123	-90.980450
6.100000	-0.161501	-91.650879	-47.607040	68.876728	-47.607040	68.876728	-0.161500	-91.650682
6.150000	-0.163885	-92.320883	-47.426743	67.369752	-47.426743	67.369752	-0.163884	-92.320701
6.200000	-0.166334	-92.988555	-47.246883	65.863950	-47.246883	65.863950	-0.166333	-92.988390
6.250000	-0.168783	-93.656226	-47.070673	64.358149	-47.070673	64.358149	-0.168783	-93.656078
6.300000	-0.171304	-94.321411	-46.894639	62.853694	-46.894639	62.853694	-0.171305	-94.321280
6.350000	-0.173826	-94.986596	-46.722102	61.349240	-46.722102	61.349240	-0.173827	-94.986483
6.400000	-0.176416	-95.649557	-46.550042	59.846072	-46.550042	59.846072	-0.176417	-95.649463
6.450000	-0.179013	-96.312315	-46.381068	58.343021	-46.381068	58.343021	-0.179014	-96.312241
6.500000	-0.181672	-96.973106	-46.212839	56.841175	-46.212839	56.841175	-0.181674	-96.973051
6.550000	-0.184344	-97.633503	-46.047319	55.339571	-46.047319	55.339571	-0.184346	-97.633469
6.600000	-0.187074	-98.292178	-45.882782	53.839075	-45.882782	53.839075	-0.187077	-98.292165
6.650000	-0.189823	-98.950280	-45.720611	52.338949	-45.720611	52.338949	-0.189827	-98.950289
6.700000	-0.192625	-99.606899	-45.559632	50.839817	-45.559632	50.839817	-0.192629	-99.606930
6.750000	-0.195453	-100.262776	-45.400707	49.341183	-45.400707	49.341183	-0.195457	-100.262830
6.800000	-0.198327	-100.917398	-45.243158	47.843418	-45.243158	47.843418	-0.198333	-100.917476
6.850000	-0.201235	-101.571123	-45.087377	46.346274	-45.087377	46.346274	-0.201241	-101.571226
6.900000	-0.204183	-102.223811	-44.933134	44.849864	-44.933134	44.849864	-0.204190	-102.223939
6.950000	-0.207172	-102.875461	-44.780397	43.354190	-44.780397	43.354190	-0.207180	-102.875616
7.000000	-0.210196	-103.526280	-44.629342	41.859110	-44.629342	41.859110	-0.210204	-103.526462
7.050000	-0.213267	-104.175935	-44.479552	40.364863	-44.479552	40.364863	-0.213276	-104.176145
7.100000	-0.216366	-104.824953	-44.331569	38.871071	-44.331569	38.871071	-0.216376	-104.825192
7.150000	-0.219521	-105.472697	-44.184629	37.378189	-44.184629	37.378189	-0.219531	-105.472966
7.200000	-0.222697	-106.119984	-44.039608	35.885625	-44.039608	35.885625	-0.222708	-106.120284
7.250000	-0.225936	-106.765902	-43.895423	34.394017	-43.895423	34.394017	-0.225947	-106.766235
7.300000	-0.229190	-107.411532	-43.753257	32.902603	-43.753257	32.902603	-0.229202	-107.411897
7.350000	-0.232514	-108.055716	-43.611734	31.412156	-43.611734	31.412156	-0.232527	-108.056117
7.400000	-0.235847	-108.699763	-43.472320	29.921794	-43.472320	29.921794	-0.235860	-108.700200
7.450000	-0.239258	-109.342306	-43.333369	28.432365	-43.333369	28.432365	-0.239271	-109.342782
7.500000	-0.242670	-109.984849	-43.196606	26.942936	-43.196606	26.942936	-0.242684	-109.985364
7.550000	-0.246169	-110.625850	-43.060139	25.454353	-43.060139	25.454353	-0.246183	-110.626407
7.600000	-0.249668	-111.266850	-42.925783	23.965769	-42.925783	23.965769	-0.249683	-111.267450
7.650000	-0.253248	-111.906530	-42.791863	22.477773	-42.791863	22.477773	-0.253263	-111.907176
7.700000	-0.256836	-112.546089	-42.659832	20.989830	-42.659832	20.989830	-0.256851	-112.546782
7.750000	-0.260498	-113.184536	-42.528365	19.502223	-42.528365	19.502223	-0.260513	-113.185279
7.800000	-0.264176	-113.822760	-42.398580	18.014684	-42.398580	18.014684	-0.264191	-113.823555
7.850000	-0.267921	-114.460064	-42.269477	16.527245	-42.269477	16.527245	-0.267935	-114.460916
7.900000	-0.271689	-115.097063	-42.141861	15.039838	-42.141861	15.039838	-0.271703	-115.097971
7.950000	-0.275518	-115.733320	-42.015037	13.552314	-42.015037	13.552314	-0.275532	-115.734290
8.000000	-0.279377	-116.369207	-41.889517	12.064732	-41.889517	12.064732	-0.279391	-116.370241
8.050000	-0.283290	-117.004514	-41.764891	10.576846	-41.764891	10.576846	-0.283303	-117.005617
8.100000	-0.287242	-117.639408	-41.641399	9.088745	-41.641399	9.088745	-0.287255	-117.640581
8.150000	-0.291241	-118.273866	-41.518896	7.600192	-41.518896	7.600192	-0.291253	-118.275115
8.200000	-0.295287	-118.907890	-41.397365	6.111189	-41.397365	6.111189	-0.295297	-118.909219
8.250000	-0.299372	-119.541604	-41.276915	4.621635	-41.276915	4.621635	-0.299381	-119.543016
8.300000	-0.303512	-120.174884	-41.157287	3.131310	-41.157287	3.131310	-0.303520	-120.176386
8.350000	-0.307684	-120.807962	-41.038823	1.640392	-41.038823	1.640392	-0.307691	-120.809557
8.400000	-0.311920	-121.440632	-40.921043	0.148287	-40.921043	0.148287	-0.311925	-121.442328
8.450000	-0.316180	-122.073185	-40.804506	-1.344388	-40.804506	-1.344388	-0.316184	-122.074984
8.500000	-0.320513	-122.705383	-40.688526	-2.838772	-40.688526	-2.838772	-0.320515	-122.707294
8.550000	-0.324863	-123.337526	-40.573861	-4.333624	-40.573861	-4.333624	-0.324863	-123.339552
8.600000	-0.329293	-123.969394	-40.459641	-5.830821	-40.459641	-5.830821	-0.329291	-123.971547
8.650000	-0.333734	-124.601247	-40.346801	-7.328301	-40.346801	-7.328301	-0.333730	-124.603528
8.700000	-0.338264	-125.232933	-40.234306	-8.828885	-40.234306	-8.828885	-0.338258	-125.235356
8.750000	-0.342796	-125.864619	-40.123249	-10.329470	-40.123249	-10.329470	-0.342788	-125.867184
8.800000	-0.347427	-126.496277	-40.012456	-11.834051	-40.012456	-11.834051	-0.347416	-126.499002
8.850000	-0.352061	-127.127935	-39.903057	-13.338632	-39.903057	-13.338632	-0.352048	-127.130820
8.900000	-0.356786	-127.759714	-39.794041	-14.847467	-39.794041	-14.847467	-0.356771	-127.762776
8.950000	-0.361523	-128.391503	-39.686287	-16.356689	-39.686287	-16.356689	-0.361504	-128.394745
9.000000	-0.366345	-129.023541	-39.579029	-17.870340	-39.579029	-17.870340	-0.366324	-129.026980
9.050000	-0.371186	-129.655627	-39.472917	-19.384878	-39.472917	-19.384878	-0.371162	-129.659267
9.100000	-0.376105	-130.288066	-39.367409	-20.903931	-39.367409	-20.903931	-0.376079	-130.291925
9.150000	-0.381053	-130.920622	-39.262946	-22.424490	-39.262946	-22.424490	-0.381024	-130.924706
9.200000	-0.386072	-131.553610	-39.159190	-23.949547	-39.159190	-23.949547	-0.386041	-131.557936
9.250000	-0.391129	-132.186813	-39.056395	-25.476855	-39.056395	-25.476855	-0.391095	-132.191391
9.300000	-0.396250	-132.820503	-38.954403	-27.008536	-38.954403	-27.008536	-0.396214	-132.825349
9.350000	-0.401418	-133.454539	-38.853311	-28.543340	-38.853311	-28.543340	-0.401380	-133.459667
9.400000	-0.406643	-134.089089	-38.753103	-30.082274	-38.753103	-30.082274	-0.406603	-134.094514
9.450000	-0.411925	-134.724152	-38.653762	-31.625337	-38.653762	-31.625337	-0.411883	-134.729889
9.500000	-0.417256	-135.359725	-38.555372	-33.172161	-38.555372	-33.172161	-0.417213	-135.365790
9.550000	-0.422655	-135.996013	-38.457845	-34.724250	-38.457845	-34.724250	-0.422611	-136.002427
9.600000	-0.428095	-136.632779	-38.361318	-36.279601	-38.361318	-36.279601	-0.428051	-136.639555
9.650000	-0.433615	-137.270501	-38.265687	-37.841480	-38.265687	-37.841480	-0.433570	-137.277665
9.700000	-0.439167	-137.908636	-38.171080	-39.405994	-38.171080	-39.405994	-0.439122	-137.916197
9.750000	-0.444810	-138.548008	-38.077442	-40.978413	-38.077442	-40.978413	-0.444767	-138.555999
9.800000	-0.450478	-139.187692	-37.984825	-42.552711	-37.984825	-42.552711	-0.450435	-139.196121
9.850000	-0.456249	-139.828939	-37.893297	-44.136398	-37.893297	-44.136398	-0.456209	-139.837844
9.900000	-0.462035	-140.470361	-37.802754	-45.721081	-37.802754	-45.721081	-0.461998	-140.479746
9.950000	-0.467939	-141.113716	-37.713473	-47.316723	-37.713473	-47.316723	-0.467906	-141.123627
10.000000	-0.473847	-141.757070	-37.625099	-48.912366	-37.625099	-48.912366	-0.473819	-141.767509
