! freq	dB(S11)	phase(S11)	dB(S12)	phase(S12)	
!     	dB(S21)	phase(S21)	dB(S22)	phase(S22)	
!S-par simulation data
#  GHz  S  DB  R 50
0.000000	-97.315724	0.000000	-0.000118	0.000000	-0.000118	0.000000	-97.315724	0.000000
0.050000	-40.332340	-91.492935	-0.001446	-1.373125	-0.001446	-1.373125	-40.332341	-91.492956
0.100000	-34.328622	-93.070945	-0.004911	-2.740174	-0.004911	-2.740174	-34.328621	-93.070995
0.150000	-30.829387	-94.568239	-0.009584	-4.100050	-0.009584	-4.100050	-30.829385	-94.568325
0.200000	-28.354517	-96.011022	-0.014867	-5.454918	-0.014867	-5.454918	-28.354514	-96.011147
0.250000	-26.439851	-97.415070	-0.020582	-6.806797	-0.020582	-6.806797	-26.439849	-97.415232
0.300000	-24.878693	-98.794629	-0.026739	-8.156952	-0.026739	-8.156952	-24.878691	-98.794826
0.350000	-23.561014	-100.160216	-0.033387	-9.505928	-0.033387	-9.505928	-23.561013	-100.160442
0.400000	-22.421682	-101.517558	-0.040591	-10.853795	-0.040591	-10.853795	-22.421682	-101.517814
0.450000	-21.419028	-102.869861	-0.048433	-12.200383	-0.048433	-12.200383	-21.419028	-102.870144
0.500000	-20.524292	-104.219138	-0.056915	-13.545567	-0.056915	-13.545567	-20.524291	-104.219449
0.550000	-19.717175	-105.566175	-0.066060	-14.889147	-0.066060	-14.889147	-19.717174	-105.566514
0.600000	-18.982895	-106.911186	-0.075909	-16.230825	-0.075909	-16.230825	-18.982893	-106.911554
0.650000	-18.309905	-108.254272	-0.086443	-17.570465	-0.086443	-17.570465	-18.309903	-108.254669
0.700000	-17.689305	-109.595342	-0.097651	-18.907904	-0.097651	-18.907904	-17.689302	-109.595769
0.750000	-17.114193	-110.934156	-0.109548	-20.242894	-0.109548	-20.242894	-17.114190	-110.934615
0.800000	-16.578880	-112.270517	-0.122120	-21.575272	-0.122120	-21.575272	-16.578875	-112.271009
0.850000	-16.078659	-113.604260	-0.135345	-22.904913	-0.135345	-22.904913	-16.078654	-113.604784
0.900000	-15.609661	-114.935208	-0.149207	-24.231682	-0.149207	-24.231682	-15.609655	-114.935766
0.950000	-15.168662	-116.263186	-0.163692	-25.555434	-0.163692	-25.555434	-15.168656	-116.263777
1.000000	-14.752916	-117.588046	-0.178779	-26.876046	-0.178779	-26.876046	-14.752910	-117.588670
1.050000	-14.360075	-118.909657	-0.194450	-28.193402	-0.194450	-28.193402	-14.360068	-118.910316
1.100000	-13.988112	-120.227908	-0.210684	-29.507396	-0.210684	-29.507396	-13.988105	-120.228601
1.150000	-13.635267	-121.542701	-0.227459	-30.817931	-0.227459	-30.817931	-13.635260	-121.543428
1.200000	-13.300003	-122.853952	-0.244753	-32.124919	-0.244753	-32.124919	-13.299995	-122.854713
1.250000	-12.980964	-124.161590	-0.262544	-33.428280	-0.262544	-33.428280	-12.980957	-124.162384
1.300000	-12.677036	-125.465473	-0.280818	-34.727860	-0.280818	-34.727860	-12.677029	-125.466301
1.350000	-12.387068	-126.765628	-0.299540	-36.023676	-0.299540	-36.023676	-12.387061	-126.766490
1.400000	-12.110109	-128.062014	-0.318688	-37.315673	-0.318688	-37.315673	-12.110102	-128.062909
1.450000	-11.845302	-129.354596	-0.338238	-38.603803	-0.338238	-38.603803	-11.845295	-129.355525
1.500000	-11.591878	-130.643347	-0.358166	-39.888026	-0.358166	-39.888026	-11.591871	-130.644308
1.550000	-11.349138	-131.928244	-0.378449	-41.168311	-0.378449	-41.168311	-11.349132	-131.929239
1.600000	-11.116451	-133.209271	-0.399064	-42.444631	-0.399064	-42.444631	-11.116445	-133.210300
1.650000	-10.893238	-134.486420	-0.419986	-43.716968	-0.419986	-43.716968	-10.893232	-134.487482
1.700000	-10.678972	-135.759683	-0.441194	-44.985310	-0.441194	-44.985310	-10.678966	-135.760778
1.750000	-10.473170	-137.029060	-0.462663	-46.249649	-0.462663	-46.249649	-10.473164	-137.030190
1.800000	-10.275387	-138.294556	-0.484372	-47.509987	-0.484372	-47.509987	-10.275381	-138.295719
1.850000	-10.085212	-139.556179	-0.506299	-48.766328	-0.506299	-48.766328	-10.085206	-139.557376
1.900000	-9.902301	-140.813899	-0.528422	-50.018639	-0.528422	-50.018639	-9.902296	-140.815130
1.950000	-9.726302	-142.067734	-0.550721	-51.266938	-0.550721	-51.266938	-9.726297	-142.069000
2.000000	-9.556853	-143.317747	-0.573171	-52.511289	-0.573171	-52.511289	-9.556848	-143.319048
2.050000	-9.393652	-144.563963	-0.595753	-53.751716	-0.595753	-53.751716	-9.393647	-144.565298
2.100000	-9.236416	-145.806409	-0.618447	-54.988249	-0.618447	-54.988249	-9.236411	-145.807781
2.150000	-9.084881	-147.045120	-0.641232	-56.220921	-0.641232	-56.220921	-9.084876	-147.046527
2.200000	-8.938801	-148.280129	-0.664090	-57.449770	-0.664090	-57.449770	-8.938796	-148.281573
2.250000	-8.797944	-149.511478	-0.687003	-58.674835	-0.687003	-58.674835	-8.797939	-149.512958
2.300000	-8.662093	-150.739207	-0.709951	-59.896160	-0.709951	-59.896160	-8.662088	-150.740724
2.350000	-8.531045	-151.963362	-0.732917	-61.113792	-0.732917	-61.113792	-8.531040	-151.964917
2.400000	-8.404608	-153.183993	-0.755884	-62.327780	-0.755884	-62.327780	-8.404602	-153.185586
2.450000	-8.282600	-154.401151	-0.778834	-63.538175	-0.778834	-63.538175	-8.282595	-154.402783
2.500000	-8.164852	-155.614891	-0.801753	-64.745032	-0.801753	-64.745032	-8.164847	-155.616562
2.550000	-8.051257	-156.825199	-0.824620	-65.948333	-0.824620	-65.948333	-8.051251	-156.826909
2.600000	-7.941606	-158.032208	-0.847422	-67.148214	-0.847422	-67.148214	-7.941600	-158.033958
2.650000	-7.835756	-159.235981	-0.870145	-68.344734	-0.870145	-68.344734	-7.835750	-159.237771
2.700000	-7.733569	-160.436584	-0.892774	-69.537957	-0.892774	-69.537957	-7.733563	-160.438415
2.750000	-7.634917	-161.634083	-0.915295	-70.727946	-0.915295	-70.727946	-7.634910	-161.635955
2.800000	-7.539676	-162.828548	-0.937693	-71.914767	-0.937693	-71.914767	-7.539669	-162.830461
2.850000	-7.447730	-164.020049	-0.959955	-73.098487	-0.959955	-73.098487	-7.447723	-164.022004
2.900000	-7.358969	-165.208659	-0.982069	-74.279175	-0.982069	-74.279175	-7.358962	-165.210657
2.950000	-7.273287	-166.394453	-1.004022	-75.456901	-1.004022	-75.456901	-7.273280	-166.396494
3.000000	-7.190584	-167.577507	-1.025801	-76.631737	-1.025801	-76.631737	-7.190576	-167.579592
3.050000	-7.110763	-168.757899	-1.047395	-77.803754	-1.047395	-77.803754	-7.110756	-168.760027
3.100000	-7.033736	-169.935707	-1.068793	-78.973028	-1.068793	-78.973028	-7.033727	-169.937879
3.150000	-6.959697	-171.110669	-1.089944	-80.139267	-1.089944	-80.139267	-6.959689	-171.112885
3.200000	-6.888013	-172.283537	-1.110910	-81.303263	-1.110910	-81.303263	-6.888005	-172.285798
3.250000	-6.818873	-173.454066	-1.131646	-82.464746	-1.131646	-82.464746	-6.818864	-173.456373
3.300000	-6.752201	-174.622339	-1.152144	-83.623795	-1.152144	-83.623795	-6.752192	-174.624692
3.350000	-6.687924	-175.788440	-1.172392	-84.780488	-1.172392	-84.780488	-6.687915	-175.790839
3.400000	-6.625974	-176.952453	-1.192382	-85.934906	-1.192382	-85.934906	-6.625964	-176.954897
3.450000	-6.566285	-178.114461	-1.212105	-87.087132	-1.212105	-87.087132	-6.566275	-178.116952
3.500000	-6.508794	-179.274551	-1.231551	-88.237246	-1.231551	-88.237246	-6.508784	-179.277089
3.550000	-6.453441	179.567193	-1.250713	-89.385334	-1.250713	-89.385334	-6.453431	179.564608
3.600000	-6.400169	178.410685	-1.269583	-90.531478	-1.269583	-90.531478	-6.400158	178.408052
3.650000	-6.348921	177.255840	-1.288153	-91.675763	-1.288153	-91.675763	-6.348911	177.253159
3.700000	-6.299646	176.102571	-1.306416	-92.818276	-1.306416	-92.818276	-6.299635	176.099842
3.750000	-6.252292	174.950795	-1.324366	-93.959103	-1.324366	-93.959103	-6.252281	174.948017
3.800000	-6.206880	173.800481	-1.341979	-95.098264	-1.341979	-95.098264	-6.206869	173.797654
3.850000	-6.163293	172.651481	-1.359266	-96.235922	-1.359266	-96.235922	-6.163281	172.648605
3.900000	-6.121484	171.503710	-1.376220	-97.372164	-1.376220	-97.372164	-6.121473	171.500784
3.950000	-6.081413	170.357083	-1.392836	-98.507078	-1.392836	-98.507078	-6.081401	170.354107
4.000000	-6.043036	169.211517	-1.409110	-99.640753	-1.409110	-99.640753	-6.043025	169.208491
4.050000	-6.006316	168.066928	-1.425037	-100.773279	-1.425037	-100.773279	-6.006304	168.063851
4.100000	-5.971214	166.923233	-1.440612	-101.904744	-1.440612	-101.904744	-5.971202	166.920106
4.150000	-5.937694	165.780351	-1.455832	-103.035238	-1.455832	-103.035238	-5.937682	165.777173
4.200000	-5.905721	164.638201	-1.470693	-104.164852	-1.470693	-104.164852	-5.905709	164.634971
4.250000	-5.875261	163.496701	-1.485192	-105.293673	-1.485192	-105.293673	-5.875248	163.493419
4.300000	-5.846282	162.355772	-1.499327	-106.421791	-1.499327	-106.421791	-5.846269	162.352438
4.350000	-5.818752	161.215336	-1.513095	-107.549297	-1.513095	-107.549297	-5.818739	161.211949
4.400000	-5.792642	160.075314	-1.526494	-108.676278	-1.526494	-108.676278	-5.792629	160.071874
4.450000	-5.767924	158.935630	-1.539523	-109.802824	-1.539523	-109.802824	-5.767910	158.932137
4.500000	-5.744568	157.796208	-1.552180	-110.929023	-1.552180	-110.929023	-5.744554	157.792661
4.550000	-5.722548	156.656972	-1.564464	-112.054963	-1.564464	-112.054963	-5.722534	156.653371
4.600000	-5.701839	155.517850	-1.576376	-113.180731	-1.576376	-113.180731	-5.701825	155.514194
4.650000	-5.682415	154.378769	-1.587913	-114.306415	-1.587913	-114.306415	-5.682401	154.375058
4.700000	-5.664252	153.239657	-1.599078	-115.432100	-1.599078	-115.432100	-5.664238	153.235891
4.750000	-5.647328	152.100444	-1.609870	-116.557872	-1.609870	-116.557872	-5.647313	152.096622
4.800000	-5.631618	150.961062	-1.620290	-117.683816	-1.620290	-117.683816	-5.631604	150.957184
4.850000	-5.617103	149.821443	-1.630339	-118.810016	-1.630339	-118.810016	-5.617088	149.817507
4.900000	-5.603759	148.681520	-1.640018	-119.936554	-1.640018	-119.936554	-5.603744	148.677527
4.950000	-5.591568	147.541229	-1.649330	-121.063514	-1.649330	-121.063514	-5.591553	147.537178
5.000000	-5.580509	146.400506	-1.658276	-122.190975	-1.658276	-122.190975	-5.580493	146.396397
5.050000	-5.570610	145.259264	-1.666843	-123.319048	-1.666843	-123.319048	-5.570594	145.255096
5.100000	-5.561803	144.117461	-1.675050	-124.447788	-1.675050	-124.447788	-5.561787	144.113234
5.150000	-5.554071	142.975039	-1.682899	-125.577274	-1.682899	-125.577274	-5.554054	142.970752
5.200000	-5.547395	141.831940	-1.690394	-126.707582	-1.690394	-126.707582	-5.547379	141.827592
5.250000	-5.541759	140.688106	-1.697538	-127.838787	-1.697538	-127.838787	-5.541742	140.683698
5.300000	-5.537145	139.543485	-1.704336	-128.970963	-1.704336	-128.970963	-5.537128	139.539014
5.350000	-5.533538	138.398021	-1.710791	-130.104182	-1.710791	-130.104182	-5.533520	138.393489
5.400000	-5.530920	137.251664	-1.716907	-131.238516	-1.716907	-131.238516	-5.530902	137.247069
5.450000	-5.529276	136.104364	-1.722690	-132.374033	-1.722690	-132.374033	-5.529258	136.099705
5.500000	-5.528591	134.956070	-1.728143	-133.510802	-1.728143	-133.510802	-5.528572	134.951347
5.550000	-5.528849	133.806738	-1.733272	-134.648890	-1.733272	-134.648890	-5.528830	133.801950
5.600000	-5.530035	132.656320	-1.738081	-135.788361	-1.738081	-135.788361	-5.530016	132.651467
5.650000	-5.532135	131.504773	-1.742577	-136.929280	-1.742577	-136.929280	-5.532116	131.499854
5.700000	-5.535134	130.352054	-1.746765	-138.071708	-1.746765	-138.071708	-5.535114	130.347068
5.750000	-5.539018	129.198123	-1.750650	-139.215706	-1.750650	-139.215706	-5.538997	129.193070
5.800000	-5.543772	128.042941	-1.754239	-140.361331	-1.754239	-140.361331	-5.543751	128.037820
5.850000	-5.549382	126.886470	-1.757538	-141.508642	-1.757538	-141.508642	-5.549361	126.881280
5.900000	-5.555835	125.728674	-1.760553	-142.657693	-1.760553	-142.657693	-5.555813	125.723415
5.950000	-5.563116	124.569519	-1.763290	-143.808539	-1.763290	-143.808539	-5.563094	124.564190
6.000000	-5.571213	123.408972	-1.765756	-144.961230	-1.765756	-144.961230	-5.571190	123.403572
6.050000	-5.580110	122.247002	-1.767958	-146.115817	-1.767958	-146.115817	-5.580086	122.241531
6.100000	-5.589794	121.083580	-1.769903	-147.272348	-1.769903	-147.272348	-5.589770	121.078038
6.150000	-5.600252	119.918679	-1.771598	-148.430870	-1.771598	-148.430870	-5.600228	119.913064
6.200000	-5.611471	118.752272	-1.773049	-149.591428	-1.773049	-149.591428	-5.611446	118.746583
6.250000	-5.623435	117.584336	-1.774264	-150.754063	-1.774264	-150.754063	-5.623410	117.578573
6.300000	-5.636163	116.414778	-1.775242	-151.918913	-1.775242	-151.918913	-5.636137	116.408941
6.350000	-5.649608	115.243646	-1.775998	-153.085925	-1.775998	-153.085925	-5.649582	115.237733
6.400000	-5.663757	114.070919	-1.776542	-154.255136	-1.776542	-154.255136	-5.663730	114.064931
6.450000	-5.678596	112.896582	-1.776880	-155.426581	-1.776880	-155.426581	-5.678568	112.890517
6.500000	-5.694110	111.720619	-1.777020	-156.600296	-1.777020	-156.600296	-5.694082	111.714476
6.550000	-5.710287	110.543015	-1.776970	-157.776310	-1.776970	-157.776310	-5.710258	110.536794
6.600000	-5.727111	109.363759	-1.776738	-158.954653	-1.776738	-158.954653	-5.727081	109.357460
6.650000	-5.744568	108.182841	-1.776332	-160.135355	-1.776332	-160.135355	-5.744538	108.176464
6.700000	-5.762644	107.000253	-1.775758	-161.318441	-1.775758	-161.318441	-5.762613	106.993796
6.750000	-5.781325	105.815987	-1.775026	-162.503935	-1.775026	-162.503935	-5.781294	105.809450
6.800000	-5.800596	104.630040	-1.774143	-163.691860	-1.774143	-163.691860	-5.800564	104.623422
6.850000	-5.820441	103.442407	-1.773117	-164.882237	-1.773117	-164.882237	-5.820408	103.435708
6.900000	-5.840847	102.253088	-1.771956	-166.075084	-1.771956	-166.075084	-5.840813	102.246308
6.950000	-5.861797	101.062084	-1.770667	-167.270420	-1.770667	-167.270420	-5.861763	101.055222
7.000000	-5.883276	99.869397	-1.769259	-168.468259	-1.769259	-168.468259	-5.883241	99.862453
7.050000	-5.905270	98.675031	-1.767739	-169.668615	-1.767739	-169.668615	-5.905234	98.668005
7.100000	-5.927761	97.478993	-1.766115	-170.871499	-1.766115	-170.871499	-5.927725	97.471884
7.150000	-5.950735	96.281291	-1.764396	-172.076924	-1.764396	-172.076924	-5.950698	96.274098
7.200000	-5.974175	95.081935	-1.762588	-173.284896	-1.762588	-173.284896	-5.974138	95.074659
7.250000	-5.998065	93.880936	-1.760700	-174.495422	-1.760700	-174.495422	-5.998027	93.873577
7.300000	-6.022389	92.678310	-1.758739	-175.708509	-1.758739	-175.708509	-6.022350	92.670867
7.350000	-6.047129	91.474071	-1.756713	-176.924160	-1.756713	-176.924160	-6.047089	91.466545
7.400000	-6.072269	90.268239	-1.754628	-178.142377	-1.754628	-178.142377	-6.072228	90.260628
7.450000	-6.097791	89.060831	-1.752494	-179.363161	-1.752494	-179.363161	-6.097750	89.053138
7.500000	-6.123680	87.851872	-1.750317	179.413490	-1.750317	179.413490	-6.123638	87.844095
7.550000	-6.149927	86.641320	-1.748102	178.187466	-1.748102	178.187466	-6.149884	86.633459
7.600000	-6.176503	85.429268	-1.745860	176.958883	-1.745860	176.958883	-6.176459	85.421323
7.650000	-6.203389	84.215745	-1.743598	175.727746	-1.743598	175.727746	-6.203345	84.207717
7.700000	-6.230569	83.000782	-1.741321	174.494062	-1.741321	174.494062	-6.230524	82.992671
7.750000	-6.258023	81.784411	-1.739038	173.257839	-1.739038	173.257839	-6.257977	81.776218
7.800000	-6.285733	80.566667	-1.736755	172.019086	-1.736755	172.019086	-6.285687	80.558393
7.850000	-6.313681	79.347589	-1.734479	170.777814	-1.734479	170.777814	-6.313634	79.339233
7.900000	-6.341848	78.127214	-1.732216	169.534034	-1.732216	169.534034	-6.341800	78.118777
7.950000	-6.370215	76.905585	-1.729972	168.287759	-1.729972	168.287759	-6.370167	76.897067
8.000000	-6.398763	75.682745	-1.727755	167.039003	-1.727755	167.039003	-6.398715	75.674148
8.050000	-6.427474	74.458740	-1.725570	165.787780	-1.725570	165.787780	-6.427425	74.450064
8.100000	-6.456328	73.233619	-1.723423	164.534108	-1.723423	164.534108	-6.456278	73.224866
8.150000	-6.485305	72.007433	-1.721321	163.278001	-1.721321	163.278001	-6.485255	71.998602
8.200000	-6.514388	70.780234	-1.719269	162.019479	-1.719269	162.019479	-6.514337	70.771327
8.250000	-6.543555	69.552078	-1.717273	160.758559	-1.717273	160.758559	-6.543503	69.543096
8.300000	-6.572788	68.323023	-1.715338	159.495260	-1.715338	159.495260	-6.572736	68.313967
8.350000	-6.602067	67.093127	-1.713470	158.229603	-1.713470	158.229603	-6.602014	67.083999
8.400000	-6.631372	65.862455	-1.711675	156.961608	-1.711675	156.961608	-6.631319	65.853255
8.450000	-6.660685	64.631069	-1.709958	155.691297	-1.709958	155.691297	-6.660631	64.621800
8.500000	-6.689985	63.399038	-1.708323	154.418690	-1.708323	154.418690	-6.689931	63.389700
8.550000	-6.719253	62.166431	-1.706776	153.143811	-1.706776	153.143811	-6.719198	62.157026
8.600000	-6.748469	60.933319	-1.705321	151.866682	-1.705321	151.866682	-6.748414	60.923850
8.650000	-6.777615	59.699777	-1.703964	150.587326	-1.703964	150.587326	-6.777560	59.690244
8.700000	-6.806670	58.465881	-1.702709	149.305767	-1.702709	149.305767	-6.806615	58.456286
8.750000	-6.835616	57.231710	-1.701561	148.022028	-1.701561	148.022028	-6.835560	57.222055
8.800000	-6.864423	55.997339	-1.700528	146.736042	-1.700528	146.736042	-6.864367	55.987627
8.850000	-6.893081	54.762866	-1.699612	145.447926	-1.699612	145.447926	-6.893025	54.753098
8.900000	-6.921571	53.528374	-1.698815	144.157706	-1.698815	144.157706	-6.921514	53.518553
8.950000	-6.949874	52.293954	-1.698143	142.865407	-1.698143	142.865407	-6.949818	52.284081
9.000000	-6.977973	51.059693	-1.697599	141.571052	-1.697599	141.571052	-6.977917	51.049772
9.050000	-7.005849	49.825686	-1.697187	140.274666	-1.697187	140.274666	-7.005793	49.815718
9.100000	-7.033484	48.592026	-1.696912	138.976275	-1.696912	138.976275	-7.033428	48.582014
9.150000	-7.060861	47.358810	-1.696776	137.675903	-1.696776	137.675903	-7.060805	47.348756
9.200000	-7.087962	46.126135	-1.696785	136.373575	-1.696785	136.373575	-7.087906	46.116042
9.250000	-7.114770	44.894102	-1.696941	135.069314	-1.696941	135.069314	-7.114714	44.883973
9.300000	-7.141269	43.662814	-1.697249	133.763147	-1.697249	133.763147	-7.141214	43.652651
9.350000	-7.167442	42.432373	-1.697712	132.455095	-1.697712	132.455095	-7.167387	42.422180
9.400000	-7.193274	41.202885	-1.698334	131.145185	-1.698334	131.145185	-7.193219	41.192664
9.450000	-7.218748	39.974458	-1.699119	129.833439	-1.699119	129.833439	-7.218693	39.964212
9.500000	-7.243849	38.747199	-1.700070	128.519882	-1.700070	128.519882	-7.243796	38.736932
9.550000	-7.268563	37.521219	-1.701191	127.204537	-1.701191	127.204537	-7.268511	37.510933
9.600000	-7.292876	36.296629	-1.702485	125.887426	-1.702485	125.887426	-7.292824	36.286327
9.650000	-7.316773	35.073541	-1.703957	124.568574	-1.703957	124.568574	-7.316722	35.063227
9.700000	-7.340241	33.852069	-1.705611	123.248002	-1.705611	123.248002	-7.340192	33.841746
9.750000	-7.363268	32.632327	-1.707449	121.925734	-1.707449	121.925734	-7.363220	32.621999
9.800000	-7.385841	31.414430	-1.709476	120.601791	-1.709476	120.601791	-7.385794	31.404100
9.850000	-7.407947	30.198496	-1.711697	119.276197	-1.711697	119.276197	-7.407902	30.188167
9.900000	-7.429577	28.984640	-1.714114	117.948971	-1.714114	117.948971	-7.429533	28.974316
9.950000	-7.450718	27.772980	-1.716732	116.620137	-1.716732	116.620137	-7.450676	27.762664
10.000000	-7.471361	26.563634	-1.719555	115.289716	-1.719555	115.289716	-7.471321	26.553329
