! freq	dB(S11)	phase(S11)	dB(S12)	phase(S12)	
!     	dB(S21)	phase(S21)	dB(S22)	phase(S22)	
!S-par simulation data
#  GHz  S  DB  R 50
0.000000	-76.429552	0.000000	-0.001310	0.000000	-0.001310	0.000000	-76.429552	0.000000
0.050000	-50.769724	-85.742343	-0.006622	-4.265957	-0.006622	-4.265957	-50.769959	-85.746602
0.100000	-45.353604	-92.627229	-0.015462	-8.483834	-0.015462	-8.483834	-45.353743	-92.630601
0.150000	-42.087513	-98.750410	-0.022557	-12.677728	-0.022557	-12.677728	-42.087714	-98.754592
0.200000	-39.750101	-104.260700	-0.028269	-16.866604	-0.028269	-16.866604	-39.750337	-104.266159
0.250000	-37.957086	-109.378061	-0.033317	-21.055512	-0.033317	-21.055512	-37.957336	-109.384925
0.300000	-36.524823	-114.274024	-0.038183	-25.245258	-0.038183	-25.245258	-36.525078	-114.282331
0.350000	-35.356665	-119.018437	-0.043037	-29.435586	-0.043037	-29.435586	-35.356922	-119.028218
0.400000	-34.390062	-123.662561	-0.047925	-33.626108	-0.047925	-33.626108	-34.390319	-123.673855
0.450000	-33.589202	-128.231212	-0.052830	-37.816612	-0.052830	-37.816612	-33.589460	-128.244078
0.500000	-32.923967	-132.746875	-0.057712	-42.007083	-0.057712	-42.007083	-32.924228	-132.761389
0.550000	-32.375023	-137.222224	-0.062530	-46.197675	-0.062530	-46.197675	-32.375287	-137.238481
0.600000	-31.930655	-141.666083	-0.067239	-50.388678	-0.067239	-50.388678	-31.930923	-141.684204
0.650000	-31.585143	-146.085560	-0.071798	-54.580576	-0.071798	-54.580576	-31.585416	-146.105702
0.700000	-31.326359	-150.488634	-0.076192	-58.773813	-0.076192	-58.773813	-31.326637	-150.510972
0.750000	-31.148918	-154.880402	-0.080414	-62.968873	-0.080414	-62.968873	-31.149200	-154.905146
0.800000	-31.055581	-159.265266	-0.084455	-67.166482	-0.084455	-67.166482	-31.055867	-159.292685
0.850000	-31.044474	-163.648440	-0.088332	-71.367220	-0.088332	-71.367220	-31.044762	-163.678863
0.900000	-31.112961	-168.034781	-0.092078	-75.571490	-0.092078	-75.571490	-31.113248	-168.068595
0.950000	-31.264937	-172.429492	-0.095725	-79.779840	-0.095725	-79.779840	-31.265220	-172.467185
1.000000	-31.504776	-176.838599	-0.099314	-83.992704	-0.099314	-83.992704	-31.505049	-176.880784
1.050000	-31.839223	178.730556	-0.102889	-88.210454	-0.102889	-88.210454	-31.839479	178.683097
1.100000	-32.278075	174.268521	-0.106497	-92.433395	-0.106497	-92.433395	-32.278302	174.214763
1.150000	-32.835277	169.762433	-0.110182	-96.661769	-0.110182	-96.661769	-32.835458	169.701010
1.200000	-33.530731	165.193784	-0.113985	-100.895762	-0.113985	-100.895762	-33.530839	165.122811
1.250000	-34.393364	160.534294	-0.117941	-105.135513	-0.117941	-105.135513	-34.393353	160.451074
1.300000	-35.469042	155.732850	-0.122082	-109.381257	-0.122082	-109.381257	-35.468827	155.633196
1.350000	-36.824541	150.704583	-0.126424	-113.632954	-0.126424	-113.632954	-36.823957	150.581816
1.400000	-38.577085	145.272562	-0.130979	-117.890684	-0.130979	-117.890684	-38.575756	145.114834
1.450000	-40.949079	139.008475	-0.135749	-122.154539	-0.135749	-122.154539	-40.945982	138.791652
1.500000	-44.440552	130.532358	-0.140730	-126.424635	-0.140730	-126.424635	-44.431785	130.195033
1.550000	-50.495694	111.683574	-0.145911	-130.701123	-0.145911	-130.701123	-50.451359	111.018248
1.600000	-55.894288	24.741316	-0.151277	-134.984199	-0.151277	-134.984199	-55.724583	24.958923
1.650000	-47.374186	-32.622542	-0.156809	-139.274107	-0.156809	-139.274107	-47.347575	-32.115583
1.700000	-42.209140	-45.224544	-0.162488	-143.571149	-0.162488	-143.571149	-42.200508	-44.930343
1.750000	-38.871850	-52.621220	-0.168294	-147.875675	-0.168294	-147.875675	-38.867627	-52.415108
1.800000	-36.409772	-58.559139	-0.174211	-152.188091	-0.174211	-152.188091	-36.407298	-58.400347
1.850000	-34.459566	-63.890975	-0.180224	-156.508846	-0.180224	-156.508846	-34.457976	-63.761739
1.900000	-32.846389	-68.915171	-0.186324	-160.838533	-0.186324	-160.838533	-32.845315	-68.806170
1.950000	-31.473158	-73.766877	-0.192508	-165.177693	-0.192508	-165.177693	-31.472417	-73.672698
2.000000	-30.280098	-78.515101	-0.198776	-169.526780	-0.198776	-169.526780	-30.279586	-78.432349
2.050000	-29.227475	-83.197579	-0.205133	-173.886357	-0.205133	-173.886357	-29.227131	-83.123965
2.100000	-28.287478	-87.837534	-0.211592	-178.257003	-0.211592	-178.257003	-28.287262	-87.771453
2.150000	-27.439733	-92.450096	-0.218166	177.360699	-0.218166	177.360699	-27.439618	-92.390384
2.200000	-26.668728	-97.045613	-0.224873	172.966157	-0.224873	172.966157	-26.668693	-96.991408
2.250000	-25.962247	-101.631472	-0.231731	168.558772	-0.231731	168.558772	-25.962278	-101.582123
2.300000	-25.310377	-106.213166	-0.238762	164.137931	-0.238762	164.137931	-25.310462	-106.168174
2.350000	-24.704850	-110.794938	-0.245983	159.703001	-0.245983	159.703001	-24.704981	-110.753919
2.400000	-24.138619	-115.380117	-0.253413	155.253490	-0.253413	155.253490	-24.138789	-115.342774
2.450000	-23.605462	-119.971710	-0.261075	150.788272	-0.261075	150.788272	-23.605663	-119.937808
2.500000	-23.099867	-124.572087	-0.268986	146.306832	-0.268986	146.306832	-23.100094	-124.541446
2.550000	-22.616743	-129.183559	-0.277167	141.808149	-0.277167	141.808149	-22.616993	-129.156036
2.600000	-22.151523	-133.808006	-0.285638	137.291491	-0.285638	137.291491	-22.151790	-133.783490
2.650000	-21.699934	-138.447275	-0.294425	132.755864	-0.294425	132.755864	-21.700215	-138.425677
2.700000	-21.257988	-143.103121	-0.303559	128.200173	-0.303559	128.200173	-21.258280	-143.084366
2.750000	-20.821958	-147.777229	-0.313082	123.623217	-0.313082	123.623217	-20.822258	-147.761253
2.800000	-20.388368	-152.471231	-0.323046	119.023687	-0.323046	119.023687	-20.388672	-152.457973
2.850000	-19.953786	-157.186909	-0.333522	114.399950	-0.333522	114.399950	-19.954093	-157.176308
2.900000	-19.515340	-161.925726	-0.344595	109.750576	-0.344595	109.750576	-19.515647	-161.917717
2.950000	-19.070435	-166.689163	-0.356367	105.073977	-0.356367	105.073977	-19.070741	-166.683672
3.000000	-18.616742	-171.478746	-0.368970	100.368387	-0.368970	100.368387	-18.617045	-171.475691
3.050000	-18.152286	-176.296010	-0.382560	95.631935	-0.382560	95.631935	-18.152584	-176.295296
3.100000	-17.675469	178.857491	-0.397327	90.862650	-0.397327	90.862650	-17.675761	178.855971
3.150000	-17.184865	173.979983	-0.413502	86.058262	-0.413502	86.058262	-17.185149	173.976350
3.200000	-16.679664	169.069777	-0.431356	81.216582	-0.431356	81.216582	-16.679938	169.064165
3.250000	-16.159750	164.125299	-0.451192	76.335574	-0.451192	76.335574	-16.160014	164.117850
3.300000	-15.625217	159.144718	-0.473372	71.412964	-0.473372	71.412964	-15.625469	159.135583
3.350000	-15.076797	154.126292	-0.498301	66.446659	-0.498301	66.446659	-15.077035	154.115628
3.400000	-14.514505	149.067282	-0.526522	61.433516	-0.526522	61.433516	-14.514729	149.055250
3.450000	-13.940275	143.966149	-0.558554	56.371891	-0.558554	56.371891	-13.940483	143.952908
3.500000	-13.355724	138.820838	-0.595032	51.259659	-0.595032	51.259659	-13.355917	138.806547
3.550000	-12.763451	133.630068	-0.636592	46.095673	-0.636592	46.095673	-12.763627	133.614875
3.600000	-12.164062	128.390483	-0.684220	40.876521	-0.684220	40.876521	-12.164220	128.374535
3.650000	-11.560812	123.101404	-0.738729	35.601891	-0.738729	35.601891	-11.560953	123.084836
3.700000	-10.956249	117.761754	-0.801119	30.271042	-0.801119	30.271042	-10.956373	117.744692
3.750000	-10.353046	112.371052	-0.872480	24.883894	-0.872480	24.883894	-10.353154	112.353609
3.800000	-9.753711	106.929230	-0.954067	19.440796	-0.954067	19.440796	-9.753803	106.911511
3.850000	-9.161343	101.437930	-1.047068	13.943907	-1.047068	13.943907	-9.161420	101.420027
3.900000	-8.578742	95.899558	-1.152788	8.396126	-1.152788	8.396126	-8.578805	95.881553
3.950000	-8.008656	90.317817	-1.272555	2.801647	-1.272555	2.801647	-8.008706	90.299782
4.000000	-7.453639	84.697646	-1.407780	-2.834129	-1.407780	-2.834129	-7.453677	84.679645
4.050000	-6.916340	79.045949	-1.559676	-8.503823	-1.559676	-8.503823	-6.916369	79.028036
4.100000	-6.399098	73.370973	-1.729406	-14.198756	-1.729406	-14.198756	-6.399118	73.353196
4.150000	-5.903975	67.682394	-1.918007	-19.908855	-1.918007	-19.908855	-5.903988	67.664794
4.200000	-5.432748	61.991270	-2.126399	-25.622698	-2.126399	-25.622698	-5.432756	61.973883
4.250000	-4.986900	56.309871	-2.355151	-31.327674	-2.355151	-31.327674	-4.986903	56.292725
4.300000	-4.567501	50.651165	-2.604567	-37.010505	-2.604567	-37.010505	-4.567501	50.634286
4.350000	-4.175234	45.028573	-2.874691	-42.657491	-2.874691	-42.657491	-4.175231	45.011982
4.400000	-3.810438	39.455812	-3.165300	-48.254658	-3.165300	-48.254658	-3.810433	39.439525
4.450000	-3.473049	33.946181	-3.475809	-53.788469	-3.475809	-53.788469	-3.473044	33.930211
4.500000	-3.162582	28.511927	-3.805327	-59.246460	-3.805327	-59.246460	-3.162576	28.496284
4.550000	-2.878317	23.164668	-4.152762	-64.616811	-4.152762	-64.616811	-2.878309	23.149357
4.600000	-2.619167	17.914144	-4.516790	-69.889596	-4.516790	-69.889596	-2.619158	17.899169
4.650000	-2.384074	12.770135	-4.895905	-75.054844	-4.895905	-75.054844	-2.384065	12.755496
4.700000	-2.171471	7.738637	-5.288501	-80.106401	-5.288501	-80.106401	-2.171461	7.724333
4.750000	-1.979847	2.824965	-5.692931	-85.038787	-5.692931	-85.038787	-1.979836	2.810992
4.800000	-1.807640	-1.967134	-6.107526	-89.848098	-6.107526	-89.848098	-1.807628	-1.980781
4.850000	-1.653278	-6.635381	-6.530638	-94.531895	-6.530638	-94.531895	-1.653264	-6.648708
4.900000	-1.515212	-11.178828	-6.960667	-99.089072	-6.960667	-99.089072	-1.515198	-11.191842
4.950000	-1.391949	-15.597698	-7.396092	-103.519692	-7.396092	-103.519692	-1.391933	-15.610407
5.000000	-1.282067	-19.893214	-7.835480	-107.824812	-7.835480	-107.824812	-1.282051	-19.905627
5.050000	-1.184412	-24.065280	-8.277124	-112.004120	-8.277124	-112.004120	-1.184395	-24.077406
5.100000	-1.097534	-28.118889	-8.720147	-116.062471	-8.720147	-116.062471	-1.097516	-28.130736
5.150000	-1.020299	-32.057304	-9.163460	-120.002940	-9.163460	-120.002940	-1.020280	-32.068881
5.200000	-0.951674	-35.884162	-9.606080	-123.828974	-9.606080	-123.828974	-0.951655	-35.895478
5.250000	-0.890724	-39.603363	-10.047130	-127.544270	-10.047130	-127.544270	-0.890704	-39.614426
5.300000	-0.836606	-43.218974	-10.485830	-131.152689	-10.485830	-131.152689	-0.836587	-43.229793
5.350000	-0.788567	-46.735150	-10.921494	-134.658168	-10.921494	-134.658168	-0.788548	-46.745732
5.400000	-0.745930	-50.156067	-11.353515	-138.064663	-11.353515	-138.064663	-0.745912	-50.166419
5.450000	-0.708097	-53.485871	-11.781365	-141.376095	-11.781365	-141.376095	-0.708079	-53.496002
5.500000	-0.674532	-56.728641	-12.204582	-144.596313	-12.204582	-144.596313	-0.674515	-56.738557
5.550000	-0.644764	-59.888357	-12.622765	-147.729063	-12.622765	-147.729063	-0.644748	-59.898065
5.600000	-0.618373	-62.968878	-13.035566	-150.777971	-13.035566	-150.777971	-0.618357	-62.978385
5.650000	-0.595016	-65.973147	-13.442416	-153.745693	-13.442416	-153.745693	-0.595002	-65.982458
5.700000	-0.574356	-68.904857	-13.843068	-156.635684	-13.843068	-156.635684	-0.574343	-68.913979
5.750000	-0.556075	-71.768243	-14.237573	-159.452008	-14.237573	-159.452008	-0.556064	-71.777182
5.800000	-0.539918	-74.566567	-14.625738	-162.197709	-14.625738	-162.197709	-0.539908	-74.575328
5.850000	-0.525660	-77.302937	-15.007397	-164.875685	-15.007397	-164.875685	-0.525652	-77.311525
5.900000	-0.513104	-79.980309	-15.382405	-167.488697	-15.382405	-167.488697	-0.513097	-79.988730
5.950000	-0.502073	-82.601496	-15.750638	-170.039369	-15.750638	-170.039369	-0.502067	-82.609755
6.000000	-0.492411	-85.169167	-16.111985	-172.530201	-16.111985	-172.530201	-0.492407	-85.177268
6.050000	-0.483982	-87.685853	-16.466349	-174.963575	-16.466349	-174.963575	-0.483979	-87.693802
6.100000	-0.476662	-90.153959	-16.813645	-177.341761	-16.813645	-177.341761	-0.476661	-90.161760
6.150000	-0.470344	-92.575763	-17.153799	-179.666926	-17.153799	-179.666926	-0.470344	-92.583421
6.200000	-0.464931	-94.953425	-17.486740	178.058856	-17.486740	178.058856	-0.464932	-94.960943
6.250000	-0.460337	-97.288994	-17.812408	175.833596	-17.812408	175.833596	-0.460340	-97.296378
6.300000	-0.456508	-99.583158	-18.130129	173.656864	-18.130129	173.656864	-0.456513	-99.590412
6.350000	-0.453351	-101.839135	-18.440503	171.525215	-18.440503	171.525215	-0.453356	-101.846263
6.400000	-0.450805	-104.058666	-18.743481	169.436875	-18.743481	169.436875	-0.450811	-104.065672
6.450000	-0.448816	-106.243402	-19.039017	167.390125	-19.039017	167.390125	-0.448823	-106.250290
6.500000	-0.447336	-108.394914	-19.327066	165.383291	-19.327066	165.383291	-0.447345	-108.401688
6.550000	-0.446323	-110.514692	-19.607587	163.414738	-19.607587	163.414738	-0.446333	-110.521357
6.600000	-0.445739	-112.604157	-19.880542	161.482870	-19.880542	161.482870	-0.445750	-112.610714
6.650000	-0.445547	-114.664657	-20.145893	159.586116	-20.145893	159.586116	-0.445559	-114.671112
6.700000	-0.445679	-116.700558	-20.405365	157.719198	-20.405365	157.719198	-0.445692	-116.706913
6.750000	-0.446200	-118.705690	-20.654721	155.889559	-20.654721	155.889559	-0.446214	-118.711949
6.800000	-0.447007	-120.687375	-20.897437	154.088239	-20.897437	154.088239	-0.447022	-120.693542
6.850000	-0.448112	-122.643844	-21.131813	152.317217	-21.131813	152.317217	-0.448128	-122.649922
6.900000	-0.449479	-124.577535	-21.358630	150.573358	-21.358630	150.573358	-0.449495	-124.583527
6.950000	-0.451088	-126.489461	-21.577879	148.855191	-21.577879	148.855191	-0.451105	-126.495369
7.000000	-0.452936	-128.379344	-21.788762	147.162705	-21.788762	147.162705	-0.452955	-128.385172
7.050000	-0.454983	-130.250495	-21.992769	145.491689	-21.992769	145.491689	-0.455002	-130.256246
7.100000	-0.457250	-132.100390	-22.187709	143.844542	-22.187709	143.844542	-0.457270	-132.106066
7.150000	-0.459686	-133.933541	-22.375947	142.215736	-22.375947	142.215736	-0.459708	-133.939146
7.200000	-0.462312	-135.747626	-22.555421	140.607213	-22.555421	140.607213	-0.462335	-135.753162
7.250000	-0.465094	-137.545769	-22.727698	139.015068	-22.727698	139.015068	-0.465117	-137.551238
7.300000	-0.468034	-139.327440	-22.891927	137.439160	-22.891927	137.439160	-0.468058	-139.332845
7.350000	-0.471121	-141.093667	-23.048331	135.877769	-23.048331	135.877769	-0.471145	-141.099009
7.400000	-0.474340	-142.845718	-23.197349	134.328960	-23.197349	134.328960	-0.474365	-142.850999
7.450000	-0.477697	-144.582879	-23.338015	132.792514	-23.338015	132.792514	-0.477723	-144.588102
7.500000	-0.481166	-146.307895	-23.471908	131.265392	-23.471908	131.265392	-0.481193	-146.313062
7.550000	-0.484764	-148.018629	-23.597019	129.748221	-23.597019	129.748221	-0.484793	-148.023741
7.600000	-0.488463	-149.718343	-23.715409	128.237878	-23.715409	128.237878	-0.488493	-149.723402
7.650000	-0.492273	-151.405763	-23.825716	126.734151	-23.825716	126.734151	-0.492303	-151.410771
7.700000	-0.496179	-153.082542	-23.928862	125.235216	-23.928862	125.235216	-0.496210	-153.087500
7.750000	-0.500179	-154.748795	-24.024584	123.740008	-24.024584	123.740008	-0.500211	-154.753705
7.800000	-0.504284	-156.403402	-24.111556	122.247550	-24.111556	122.247550	-0.504318	-156.408265
7.850000	-0.508447	-158.051770	-24.194046	120.756039	-24.194046	120.756039	-0.508481	-158.056587
7.900000	-0.512716	-159.688316	-24.266911	119.264918	-24.266911	119.264918	-0.512751	-159.693088
7.950000	-0.517056	-161.317122	-24.333342	117.772701	-24.333342	117.772701	-0.517092	-161.321851
8.000000	-0.521460	-162.939075	-24.393914	116.278946	-24.393914	116.278946	-0.521497	-162.943761
8.050000	-0.525936	-164.553272	-24.447528	114.782615	-24.447528	114.782615	-0.525974	-164.557917
8.100000	-0.530495	-166.158668	-24.492734	113.281531	-24.492734	113.281531	-0.530533	-166.163272
8.150000	-0.535108	-167.758416	-24.532342	111.776361	-24.532342	111.776361	-0.535147	-167.762980
8.200000	-0.539775	-169.352693	-24.566357	110.266759	-24.566357	110.266759	-0.539815	-169.357217
8.250000	-0.544516	-170.939576	-24.592340	108.749630	-24.592340	108.749630	-0.544556	-170.944063
8.300000	-0.549312	-172.520997	-24.611979	107.225419	-24.611979	107.225419	-0.549353	-172.525446
8.350000	-0.554156	-174.098039	-24.626309	105.694822	-24.626309	105.694822	-0.554197	-174.102451
8.400000	-0.559049	-175.670526	-24.634900	104.156898	-24.634900	104.156898	-0.559091	-175.674901
8.450000	-0.564007	-177.237228	-24.635549	102.607612	-24.635549	102.607612	-0.564049	-177.241568
8.500000	-0.569006	-178.800573	-24.631161	101.050474	-24.631161	101.050474	-0.569049	-178.804877
8.550000	-0.574046	179.639289	-24.621777	99.485309	-24.621777	99.485309	-0.574090	179.635019
8.600000	-0.579139	178.083112	-24.605689	97.908733	-24.605689	97.908733	-0.579183	178.078876
8.650000	-0.584279	176.530118	-24.583457	96.321013	-24.583457	96.321013	-0.584323	176.525915
8.700000	-0.589456	174.979368	-24.556470	94.724335	-24.556470	94.724335	-0.589500	174.975197
8.750000	-0.594669	173.430718	-24.524785	93.118582	-24.524785	93.118582	-0.594714	173.426579
8.800000	-0.599940	171.884856	-24.485438	91.497568	-24.485438	91.497568	-0.599984	171.880748
8.850000	-0.605245	170.340306	-24.441521	89.867033	-24.441521	89.867033	-0.605290	170.336228
8.900000	-0.610586	168.796924	-24.393088	88.226924	-24.393088	88.226924	-0.610631	168.792875
8.950000	-0.615971	167.254711	-24.338893	86.574513	-24.338893	86.574513	-0.616017	167.250691
9.000000	-0.621403	165.713214	-24.278511	84.908779	-24.278511	84.908779	-0.621449	165.709221
9.050000	-0.626872	164.171954	-24.213720	83.233222	-24.213720	83.233222	-0.626919	164.167987
9.100000	-0.632378	162.630783	-24.144580	81.547820	-24.144580	81.547820	-0.632425	162.626842
9.150000	-0.637941	161.089186	-24.068390	79.847133	-24.068390	79.847133	-0.637989	161.085269
9.200000	-0.643548	159.546837	-23.987362	78.135616	-23.987362	78.135616	-0.643597	159.542942
9.250000	-0.649197	158.003605	-23.901994	76.414157	-23.901994	76.414157	-0.649247	157.999732
9.300000	-0.654897	156.459056	-23.811370	74.680926	-23.811370	74.680926	-0.654948	156.455204
9.350000	-0.660663	154.912243	-23.713913	72.933145	-23.713913	72.933145	-0.660715	154.908410
9.400000	-0.666481	153.363496	-23.612020	71.175307	-23.612020	71.175307	-0.666534	153.359681
9.450000	-0.672351	151.812642	-23.505745	69.407384	-23.505745	69.407384	-0.672406	151.808844
9.500000	-0.678302	150.258143	-23.392370	67.624674	-23.392370	67.624674	-0.678359	150.254361
9.550000	-0.684328	148.700069	-23.273282	65.829778	-23.273282	65.829778	-0.684387	148.696301
9.600000	-0.690421	147.138665	-23.149579	64.024457	-23.149579	64.024457	-0.690482	147.134912
9.650000	-0.696592	145.573352	-23.020707	62.207660	-23.020707	62.207660	-0.696655	145.569614
9.700000	-0.702884	144.001567	-22.883321	60.374158	-22.883321	60.374158	-0.702948	143.997845
9.750000	-0.709264	142.424992	-22.740942	58.529492	-22.740942	58.529492	-0.709329	142.421287
9.800000	-0.715736	140.843367	-22.593621	56.673488	-22.593621	56.673488	-0.715803	140.839681
9.850000	-0.722342	139.254131	-22.438433	54.801516	-22.438433	54.801516	-0.722409	139.250467
9.900000	-0.729089	137.656752	-22.275594	52.913798	-22.275594	52.913798	-0.729155	137.653117
9.950000	-0.735955	136.052390	-22.107237	51.013173	-22.107237	51.013173	-0.736018	136.048791
10.000000	-0.742944	134.440711	-21.933443	49.099337	-21.933443	49.099337	-0.743003	134.437156
