! freq	dB(S11)	phase(S11)	dB(S12)	phase(S12)	
!     	dB(S21)	phase(S21)	dB(S22)	phase(S22)	
!S-par simulation data
#  GHz  S  DB  R 50
0.000000	-93.164876	0.000000	-0.000191	0.000000	-0.000191	0.000000	-93.164876	0.000000
0.050000	-43.387551	-91.057502	-0.001418	-1.420115	-0.001418	-1.420115	-43.396603	-91.663292
0.100000	-37.376890	-92.385482	-0.004480	-2.833538	-0.004480	-2.833538	-37.384031	-93.598066
0.150000	-33.869863	-93.633263	-0.008311	-4.239537	-0.008311	-4.239537	-33.874514	-95.453445
0.200000	-31.388664	-94.844995	-0.012296	-5.640846	-0.012296	-5.640846	-31.390904	-97.273244
0.250000	-29.469694	-96.029341	-0.016270	-7.039787	-0.016270	-7.039787	-29.469990	-99.065500
0.300000	-27.905896	-97.191720	-0.020269	-8.437727	-0.020269	-8.437727	-27.904923	-100.835062
0.350000	-26.586521	-98.337451	-0.024376	-9.835229	-0.024376	-9.835229	-26.584943	-102.587047
0.400000	-25.445810	-99.470228	-0.028670	-11.232418	-0.028670	-11.232418	-25.444179	-104.325248
0.450000	-24.441617	-100.592771	-0.033223	-12.629238	-0.033223	-12.629238	-24.440363	-106.052711
0.500000	-23.544940	-101.707953	-0.038065	-14.025603	-0.038065	-14.025603	-23.544327	-107.772801
0.550000	-22.735349	-102.817408	-0.043223	-15.421402	-0.043223	-15.421402	-22.735530	-109.487618
0.600000	-21.997960	-103.922115	-0.048731	-16.816487	-0.048731	-16.816487	-21.999004	-111.198635
0.650000	-21.321259	-105.023066	-0.054587	-18.210776	-0.054587	-18.210776	-21.323160	-112.907207
0.700000	-20.696380	-106.120820	-0.060793	-19.604186	-0.060793	-19.604186	-20.699085	-114.614192
0.750000	-20.116423	-107.215628	-0.067361	-20.996603	-0.067361	-20.996603	-20.119845	-116.320157
0.800000	-19.575740	-108.307714	-0.074286	-22.387952	-0.074286	-22.387952	-19.579769	-118.025533
0.850000	-19.069680	-109.397228	-0.081561	-23.778176	-0.081561	-23.778176	-19.074192	-119.730613
0.900000	-18.594411	-110.484229	-0.089179	-25.167221	-0.089179	-25.167221	-18.599277	-121.435581
0.950000	-18.146738	-111.568715	-0.097134	-26.555027	-0.097134	-26.555027	-18.151826	-123.140555
1.000000	-17.723944	-112.650664	-0.105418	-27.941549	-0.105418	-27.941549	-17.729122	-124.845610
1.050000	-17.323706	-113.730038	-0.114023	-29.326744	-0.114023	-29.326744	-17.328843	-126.550788
1.100000	-16.944017	-114.806782	-0.122939	-30.710579	-0.122939	-30.710579	-16.948992	-128.256114
1.150000	-16.583105	-115.880865	-0.132154	-32.093037	-0.132154	-32.093037	-16.587802	-129.961597
1.200000	-16.239529	-116.952145	-0.141665	-33.474055	-0.141665	-33.474055	-16.243836	-131.667248
1.250000	-15.911897	-118.020598	-0.151458	-34.853635	-0.151458	-34.853635	-15.915714	-133.373068
1.300000	-15.599057	-119.086122	-0.161525	-36.231745	-0.161525	-36.231745	-15.602289	-135.079063
1.350000	-15.299918	-120.148677	-0.171853	-37.608389	-0.171853	-37.608389	-15.302485	-136.785239
1.400000	-15.013537	-121.208197	-0.182431	-38.983559	-0.182431	-38.983559	-15.015365	-138.491609
1.450000	-14.739066	-122.264615	-0.193250	-40.357252	-0.193250	-40.357252	-14.740092	-140.198191
1.500000	-14.475740	-123.317870	-0.204298	-41.729468	-0.204298	-41.729468	-14.475911	-141.905010
1.550000	-14.222868	-124.367902	-0.215567	-43.100208	-0.215567	-43.100208	-14.222139	-143.612098
1.600000	-13.979842	-125.414627	-0.227047	-44.469470	-0.227047	-44.469470	-13.978177	-145.319496
1.650000	-13.746074	-126.458012	-0.238729	-45.837269	-0.238729	-45.837269	-13.743445	-147.027249
1.700000	-13.521030	-127.498017	-0.250601	-47.203623	-0.250601	-47.203623	-13.517420	-148.735410
1.750000	-13.304231	-128.534600	-0.262655	-48.568546	-0.262655	-48.568546	-13.299627	-150.444038
1.800000	-13.095234	-129.567720	-0.274881	-49.932058	-0.274881	-49.932058	-13.089632	-152.153200
1.850000	-12.893629	-130.597343	-0.287272	-51.294177	-0.287272	-51.294177	-12.887032	-153.862966
1.900000	-12.699053	-131.623419	-0.299818	-52.654920	-0.299818	-52.654920	-12.691466	-155.573417
1.950000	-12.511155	-132.645921	-0.312513	-54.014311	-0.312513	-54.014311	-12.502590	-157.284637
2.000000	-12.329596	-133.664848	-0.325346	-55.372384	-0.325346	-55.372384	-12.320068	-158.996705
2.050000	-12.154073	-134.680182	-0.338311	-56.729167	-0.338311	-56.729167	-12.143599	-160.709710
2.100000	-11.984358	-135.691822	-0.351403	-58.084660	-0.351403	-58.084660	-11.972958	-162.423767
2.150000	-11.820088	-136.699916	-0.364610	-59.438949	-0.364610	-59.438949	-11.807782	-164.138921
2.200000	-11.661059	-137.704392	-0.377928	-60.792043	-0.377928	-60.792043	-11.647867	-165.855281
2.250000	-11.507037	-138.705250	-0.391349	-62.143975	-0.391349	-62.143975	-11.492980	-167.572937
2.300000	-11.357806	-139.702495	-0.404869	-63.494781	-0.404869	-63.494781	-11.342902	-169.291977
2.350000	-11.213159	-140.696134	-0.418480	-64.844498	-0.418480	-64.844498	-11.197423	-171.012488
2.400000	-11.072901	-141.686179	-0.432179	-66.193161	-0.432179	-66.193161	-11.056349	-172.734552
2.450000	-10.936851	-142.672647	-0.445958	-67.540809	-0.445958	-67.540809	-10.919492	-174.458250
2.500000	-10.804834	-143.655559	-0.459815	-68.887480	-0.459815	-68.887480	-10.786675	-176.183660
2.550000	-10.676728	-144.634860	-0.473744	-70.233195	-0.473744	-70.233195	-10.657772	-177.910894
2.600000	-10.552334	-145.610657	-0.487740	-71.578013	-0.487740	-71.578013	-10.532580	-179.639985
2.650000	-10.431503	-146.582981	-0.501800	-72.921976	-0.501800	-72.921976	-10.410946	178.629004
2.700000	-10.314097	-147.551866	-0.515919	-74.265125	-0.515919	-74.265125	-10.292726	176.896012
2.750000	-10.199980	-148.517350	-0.530094	-75.607499	-0.530094	-75.607499	-10.177782	175.160984
2.800000	-10.089026	-149.479475	-0.544322	-76.949140	-0.544322	-76.949140	-10.065982	173.423869
2.850000	-9.981113	-150.438286	-0.558599	-78.290090	-0.558599	-78.290090	-9.957200	171.684619
2.900000	-9.876124	-151.393829	-0.572924	-79.630389	-0.572924	-79.630389	-9.851316	169.943193
2.950000	-9.773950	-152.346156	-0.587294	-80.970079	-0.587294	-80.970079	-9.748214	168.199553
3.000000	-9.674483	-153.295321	-0.601706	-82.309203	-0.601706	-82.309203	-9.647784	166.453666
3.050000	-9.577623	-154.241381	-0.616159	-83.647800	-0.616159	-83.647800	-9.549922	164.705503
3.100000	-9.483271	-155.184394	-0.630651	-84.985912	-0.630651	-84.985912	-9.454525	162.955040
3.150000	-9.391349	-156.124393	-0.645181	-86.323576	-0.645181	-86.323576	-9.361512	161.202230
3.200000	-9.301767	-157.061444	-0.659748	-87.660834	-0.659748	-87.660834	-9.270787	159.447059
3.250000	-9.214422	-157.995649	-0.674349	-88.997730	-0.674349	-88.997730	-9.182247	157.689540
3.300000	-9.129231	-158.927077	-0.688986	-90.334306	-0.688986	-90.334306	-9.095806	155.929668
3.350000	-9.046116	-159.855802	-0.703657	-91.670601	-0.703657	-91.670601	-9.011382	154.167440
3.400000	-8.964998	-160.781901	-0.718362	-93.006653	-0.718362	-93.006653	-8.928894	152.402860
3.450000	-8.885805	-161.705451	-0.733101	-94.342501	-0.733101	-94.342501	-8.848267	150.635936
3.500000	-8.808464	-162.626534	-0.747874	-95.678184	-0.747874	-95.678184	-8.769428	148.866680
3.550000	-8.732907	-163.545233	-0.762682	-97.013739	-0.762682	-97.013739	-8.692305	147.095112
3.600000	-8.659067	-164.461634	-0.777525	-98.349202	-0.777525	-98.349202	-8.616830	145.321253
3.650000	-8.586880	-165.375826	-0.792404	-99.684611	-0.792404	-99.684611	-8.542936	143.545133
3.700000	-8.516284	-166.287898	-0.807319	-101.019999	-0.807319	-101.019999	-8.470561	141.766785
3.750000	-8.447219	-167.197944	-0.822273	-102.355403	-0.822273	-102.355403	-8.399643	139.986251
3.800000	-8.379646	-168.106020	-0.837267	-103.690856	-0.837267	-103.690856	-8.330140	138.203529
3.850000	-8.313488	-169.012267	-0.852302	-105.026393	-0.852302	-105.026393	-8.261975	136.418719
3.900000	-8.248690	-169.916787	-0.867379	-106.362045	-0.867379	-106.362045	-8.195093	134.631880
3.950000	-8.185201	-170.819681	-0.882501	-107.697843	-0.882501	-107.697843	-8.129441	132.843075
4.000000	-8.122968	-171.721055	-0.897669	-109.033817	-0.897669	-109.033817	-8.064967	131.052375
4.050000	-8.061942	-172.621016	-0.912886	-110.369996	-0.912886	-110.369996	-8.001622	129.259857
4.100000	-8.002076	-173.519673	-0.928154	-111.706408	-0.928154	-111.706408	-7.939355	127.465604
4.150000	-7.943322	-174.417139	-0.943476	-113.043080	-0.943476	-113.043080	-7.878122	125.669706
4.200000	-7.885636	-175.313528	-0.958853	-114.380037	-0.958853	-114.380037	-7.817877	123.872260
4.250000	-7.828973	-176.208956	-0.974289	-115.717305	-0.974289	-115.717305	-7.758577	122.073368
4.300000	-7.773291	-177.103543	-0.989787	-117.054906	-0.989787	-117.054906	-7.700179	120.273140
4.350000	-7.718548	-177.997409	-1.005349	-118.392863	-1.005349	-118.392863	-7.642642	118.471693
4.400000	-7.664712	-178.890674	-1.020979	-119.731201	-1.020979	-119.731201	-7.585933	116.669138
4.450000	-7.611740	-179.783468	-1.036680	-121.069941	-1.036680	-121.069941	-7.530013	114.865609
4.500000	-7.559591	179.324075	-1.052454	-122.409095	-1.052454	-122.409095	-7.474840	113.061255
4.550000	-7.508227	178.431824	-1.068306	-123.748683	-1.068306	-123.748683	-7.420380	111.256219
4.600000	-7.457613	177.539645	-1.084238	-125.088718	-1.084238	-125.088718	-7.366599	109.450648
4.650000	-7.407715	176.647404	-1.100254	-126.429215	-1.100254	-126.429215	-7.313465	107.644698
4.700000	-7.358499	175.754963	-1.116357	-127.770188	-1.116357	-127.770188	-7.260947	105.838530
4.750000	-7.309934	174.862182	-1.132551	-129.111647	-1.132551	-129.111647	-7.209014	104.032311
4.800000	-7.261987	173.968919	-1.148840	-130.453603	-1.148840	-130.453603	-7.157640	102.226212
4.850000	-7.214629	173.075032	-1.165225	-131.796064	-1.165225	-131.796064	-7.106797	100.420412
4.900000	-7.167832	172.180373	-1.181713	-133.139037	-1.181713	-133.139037	-7.056459	98.615092
4.950000	-7.121566	171.284795	-1.198305	-134.482529	-1.198305	-134.482529	-7.006600	96.810442
5.000000	-7.075805	170.388148	-1.215005	-135.826544	-1.215005	-135.826544	-6.957199	95.006652
5.050000	-7.030527	169.490250	-1.231820	-137.171095	-1.231820	-137.171095	-6.908235	93.203948
5.100000	-6.985701	168.590971	-1.248750	-138.516173	-1.248750	-138.516173	-6.859685	91.402512
5.150000	-6.941305	167.690156	-1.265799	-139.861778	-1.265799	-139.861778	-6.811527	89.602549
5.200000	-6.897314	166.787648	-1.282970	-141.207908	-1.282970	-141.207908	-6.763744	87.804266
5.250000	-6.853706	165.883290	-1.300268	-142.554561	-1.300268	-142.554561	-6.716318	86.007876
5.300000	-6.810460	164.976921	-1.317695	-143.901732	-1.317695	-143.901732	-6.669233	84.213592
5.350000	-6.767557	164.068383	-1.335254	-145.249415	-1.335254	-145.249415	-6.622472	82.421631
5.400000	-6.724977	163.157513	-1.352949	-146.597604	-1.352949	-146.597604	-6.576023	80.632210
5.450000	-6.682702	162.244150	-1.370783	-147.946289	-1.370783	-147.946289	-6.529872	78.845551
5.500000	-6.640715	161.328131	-1.388759	-149.295462	-1.388759	-149.295462	-6.484007	77.061873
5.550000	-6.598999	160.409293	-1.406880	-150.645111	-1.406880	-150.645111	-6.438417	75.281400
5.600000	-6.557540	159.487474	-1.425148	-151.995223	-1.425148	-151.995223	-6.393092	73.504355
5.650000	-6.516323	158.562474	-1.443568	-153.345791	-1.443568	-153.345791	-6.348022	71.731001
5.700000	-6.475335	157.634126	-1.462142	-154.696798	-1.462142	-154.696798	-6.303200	69.961571
5.750000	-6.434563	156.702301	-1.480871	-156.048224	-1.480871	-156.048224	-6.258618	68.196245
5.800000	-6.393995	155.766838	-1.499758	-157.400052	-1.499758	-157.400052	-6.214270	66.435245
5.850000	-6.353623	154.827577	-1.518804	-158.752264	-1.518804	-158.752264	-6.170151	64.678790
5.900000	-6.313435	153.884359	-1.538012	-160.104840	-1.538012	-160.104840	-6.126255	62.927098
5.950000	-6.273423	152.937027	-1.557383	-161.457761	-1.557383	-161.457761	-6.082580	61.180386
6.000000	-6.233580	151.985425	-1.576918	-162.811005	-1.576918	-162.811005	-6.039121	59.438866
6.050000	-6.193900	151.029399	-1.596621	-164.164551	-1.596621	-164.164551	-5.995878	57.702749
6.100000	-6.154375	150.068799	-1.616491	-165.518375	-1.616491	-165.518375	-5.952847	55.972243
6.150000	-6.115002	149.103476	-1.636529	-166.872455	-1.636529	-166.872455	-5.910029	54.247552
6.200000	-6.075775	148.133284	-1.656737	-168.226766	-1.656737	-168.226766	-5.867423	52.528876
6.250000	-6.036691	147.158081	-1.677115	-169.581284	-1.677115	-169.581284	-5.825029	50.816411
6.300000	-5.997748	146.177614	-1.697666	-170.935987	-1.697666	-170.935987	-5.782849	49.110495
6.350000	-5.958943	145.191854	-1.718388	-172.290844	-1.718388	-172.290844	-5.740883	47.411179
6.400000	-5.920276	144.200672	-1.739282	-173.645829	-1.739282	-173.645829	-5.699134	45.718647
6.450000	-5.881745	143.203941	-1.760345	-175.000917	-1.760345	-175.000917	-5.657605	44.033075
6.500000	-5.843350	142.201224	-1.781586	-176.356082	-1.781586	-176.356082	-5.616299	42.355032
6.550000	-5.805093	141.192958	-1.802991	-177.711292	-1.802991	-177.711292	-5.575217	40.683986
6.600000	-5.766976	140.178786	-1.824565	-179.066522	-1.824565	-179.066522	-5.534364	39.020406
6.650000	-5.728999	139.158599	-1.846307	179.578254	-1.846307	179.578254	-5.493744	37.364449
6.700000	-5.691164	138.132293	-1.868216	178.223064	-1.868216	178.223064	-5.453362	35.716266
6.750000	-5.653474	137.099771	-1.890290	176.867934	-1.890290	176.867934	-5.413220	34.075999
6.800000	-5.615932	136.060939	-1.912528	175.512891	-1.912528	175.512891	-5.373326	32.443789
6.850000	-5.578541	135.015709	-1.934929	174.157961	-1.934929	174.157961	-5.333682	30.819767
6.900000	-5.541305	133.963999	-1.957489	172.803171	-1.957489	172.803171	-5.294294	29.204059
6.950000	-5.504227	132.905733	-1.980207	171.448545	-1.980207	171.448545	-5.255167	27.596785
7.000000	-5.467311	131.840839	-2.003080	170.094110	-2.003080	170.094110	-5.216308	25.998060
7.050000	-5.430560	130.769252	-2.026107	168.739890	-2.026107	168.739890	-5.177720	24.407990
7.100000	-5.393980	129.690910	-2.049284	167.385909	-2.049284	167.385909	-5.139409	22.826677
7.150000	-5.357574	128.605760	-2.072609	166.032189	-2.072609	166.032189	-5.101382	21.254216
7.200000	-5.321347	127.513753	-2.096078	164.678754	-2.096078	164.678754	-5.063643	19.690695
7.250000	-5.285302	126.414843	-2.119689	163.325626	-2.119689	163.325626	-5.026197	18.136198
7.300000	-5.249443	125.308994	-2.143439	161.972825	-2.143439	161.972825	-4.989051	16.590799
7.350000	-5.213776	124.196171	-2.167323	160.620371	-2.167323	160.620371	-4.952209	15.054569
7.400000	-5.178302	123.076345	-2.191339	159.268284	-2.191339	159.268284	-4.915678	13.527573
7.450000	-5.143027	121.949495	-2.215483	157.916581	-2.215483	157.916581	-4.879461	12.009868
7.500000	-5.107954	120.815601	-2.239752	156.565279	-2.239752	156.565279	-4.843565	10.501506
7.550000	-5.073090	119.674343	-2.264144	155.214414	-2.264144	155.214414	-4.808003	9.002944
7.600000	-5.038434	118.526017	-2.288653	153.863983	-2.288653	153.863983	-4.772771	7.513815
7.650000	-5.003989	117.370622	-2.313275	152.513999	-2.313275	152.513999	-4.737875	6.034153
7.700000	-4.969760	116.208156	-2.338007	151.164475	-2.338007	151.164475	-4.703318	4.563986
7.750000	-4.935747	115.038624	-2.362844	149.815423	-2.362844	149.815423	-4.669107	3.103337
7.800000	-4.901953	113.862035	-2.387783	148.466854	-2.387783	148.466854	-4.635244	1.652225
7.850000	-4.868381	112.678401	-2.412821	147.118776	-2.412821	147.118776	-4.601734	0.210661
7.900000	-4.835031	111.487737	-2.437953	145.771198	-2.437953	145.771198	-4.568580	-1.221347
7.950000	-4.801906	110.290064	-2.463177	144.424127	-2.463177	144.424127	-4.535786	-2.643796
8.000000	-4.769007	109.085404	-2.488488	143.077571	-2.488488	143.077571	-4.503357	-4.056689
8.050000	-4.736334	107.873783	-2.513883	141.731535	-2.513883	141.731535	-4.471293	-5.460033
8.100000	-4.703888	106.655232	-2.539360	140.386023	-2.539360	140.386023	-4.439600	-6.853839
8.150000	-4.671671	105.429781	-2.564914	139.041039	-2.564914	139.041039	-4.408279	-8.238124
8.200000	-4.639682	104.197468	-2.590543	137.696587	-2.590543	137.696587	-4.377333	-9.612907
8.250000	-4.607921	102.958329	-2.616243	136.352670	-2.616243	136.352670	-4.346764	-10.978214
8.300000	-4.576390	101.712406	-2.642013	135.009289	-2.642013	135.009289	-4.316575	-12.334072
8.350000	-4.545080	100.460130	-2.667849	133.666415	-2.667849	133.666415	-4.286750	-13.681057
8.400000	-4.514002	99.200995	-2.693749	132.324094	-2.693749	132.324094	-4.257314	-15.018432
8.450000	-4.483162	97.934671	-2.719709	130.982357	-2.719709	130.982357	-4.228286	-16.345701
8.500000	-4.452545	96.662106	-2.745729	129.641133	-2.745729	129.641133	-4.199628	-17.664169
8.550000	-4.422158	95.382846	-2.771805	128.300464	-2.771805	128.300464	-4.171363	-18.973164
8.600000	-4.391999	94.097075	-2.797936	126.960340	-2.797936	126.960340	-4.143486	-20.272916
8.650000	-4.362064	92.805101	-2.824120	125.620741	-2.824120	125.620741	-4.115986	-21.563833
8.700000	-4.332364	91.506370	-2.850355	124.281720	-2.850355	124.281720	-4.088891	-22.845089
8.750000	-4.302879	90.201922	-2.876642	122.943194	-2.876642	122.943194	-4.062156	-24.118144
8.800000	-4.273638	88.890499	-2.902974	121.605280	-2.902974	121.605280	-4.035843	-25.381149
8.850000	-4.244611	87.573487	-2.929356	120.267864	-2.929356	120.267864	-4.009887	-26.636070
8.900000	-4.215821	86.250014	-2.955782	118.931033	-2.955782	118.931033	-3.984336	-27.881602
8.950000	-4.187254	84.920740	-2.982255	117.594735	-2.982255	117.594735	-3.959157	-29.118667
9.000000	-4.158916	83.585512	-3.008771	116.258995	-3.008771	116.258995	-3.934361	-30.346998
9.050000	-4.130812	82.244300	-3.035329	114.923828	-3.035329	114.923828	-3.909952	-31.566502
9.100000	-4.102931	80.897636	-3.061932	113.589192	-3.061932	113.589192	-3.885904	-32.777920
9.150000	-4.075293	79.544837	-3.088574	112.255168	-3.088574	112.255168	-3.862256	-33.980180
9.200000	-4.047876	78.186973	-3.115259	110.921663	-3.115259	110.921663	-3.838952	-35.174829
9.250000	-4.020710	76.823070	-3.141981	109.588790	-3.141981	109.588790	-3.816048	-36.360337
9.300000	-3.993771	75.454176	-3.168745	108.256456	-3.168745	108.256456	-3.793487	-37.538228
9.350000	-3.967080	74.079773	-3.195546	106.924731	-3.195546	106.924731	-3.771301	-38.707639
9.400000	-3.940630	72.700269	-3.222386	105.593588	-3.222386	105.593588	-3.749468	-39.869126
9.450000	-3.914425	71.315774	-3.249263	104.263031	-3.249263	104.263031	-3.727984	-41.022777
9.500000	-3.888478	69.926111	-3.276176	102.933100	-3.276176	102.933100	-3.706860	-42.168225
9.550000	-3.862772	68.531963	-3.303128	101.603730	-3.303128	101.603730	-3.686058	-43.306466
9.600000	-3.837345	67.132625	-3.330111	100.275030	-3.330111	100.275030	-3.665622	-44.436251
9.650000	-3.812164	65.729123	-3.357134	98.946888	-3.357134	98.946888	-3.645491	-45.559151
9.700000	-3.787268	64.320799	-3.384187	97.619413	-3.384187	97.619413	-3.625707	-46.673947
9.750000	-3.762635	62.908383	-3.411277	96.292525	-3.411277	96.292525	-3.606224	-47.781744
9.800000	-3.738289	61.491684	-3.438399	94.966275	-3.438399	94.966275	-3.587057	-48.882068
9.850000	-3.714229	60.070924	-3.465554	93.640651	-3.465554	93.640651	-3.568193	-49.975154
9.900000	-3.690455	58.646402	-3.492744	92.315632	-3.492744	92.315632	-3.549612	-51.061376
9.950000	-3.666996	57.217904	-3.519963	90.991278	-3.519963	90.991278	-3.531329	-52.140147
10.000000	-3.643821	55.786147	-3.547219	89.667491	-3.547219	89.667491	-3.513297	-53.212638
