! freq	dB(S11)	phase(S11)	dB(S12)	phase(S12)	
!     	dB(S21)	phase(S21)	dB(S22)	phase(S22)	
!S-par simulation data
#  GHz  S  DB  R 50
0.000000	-97.315724	0.000000	-0.000118	0.000000	-0.000118	0.000000	-97.315724	0.000000
0.050000	-40.332340	-91.492935	-0.001446	-1.373125	-0.001446	-1.373125	-40.332340	-91.492956
0.100000	-34.328622	-93.070946	-0.004911	-2.740174	-0.004911	-2.740174	-34.328620	-93.070995
0.150000	-30.829387	-94.568239	-0.009584	-4.100050	-0.009584	-4.100050	-30.829384	-94.568325
0.200000	-28.354516	-96.011023	-0.014867	-5.454918	-0.014867	-5.454918	-28.354513	-96.011148
0.250000	-26.439851	-97.415071	-0.020582	-6.806797	-0.020582	-6.806797	-26.439849	-97.415233
0.300000	-24.878693	-98.794631	-0.026739	-8.156951	-0.026739	-8.156951	-24.878691	-98.794827
0.350000	-23.561014	-100.160217	-0.033387	-9.505928	-0.033387	-9.505928	-23.561012	-100.160444
0.400000	-22.421682	-101.517559	-0.040591	-10.853794	-0.040591	-10.853794	-22.421682	-101.517815
0.450000	-21.419028	-102.869862	-0.048433	-12.200382	-0.048433	-12.200382	-21.419028	-102.870145
0.500000	-20.524292	-104.219139	-0.056915	-13.545567	-0.056915	-13.545567	-20.524291	-104.219449
0.550000	-19.717175	-105.566176	-0.066060	-14.889146	-0.066060	-14.889146	-19.717174	-105.566514
0.600000	-18.982895	-106.911187	-0.075909	-16.230825	-0.075909	-16.230825	-18.982893	-106.911554
0.650000	-18.309905	-108.254272	-0.086443	-17.570465	-0.086443	-17.570465	-18.309903	-108.254669
0.700000	-17.689305	-109.595342	-0.097651	-18.907904	-0.097651	-18.907904	-17.689302	-109.595770
0.750000	-17.114194	-110.934156	-0.109548	-20.242894	-0.109548	-20.242894	-17.114190	-110.934615
0.800000	-16.578880	-112.270517	-0.122120	-21.575271	-0.122120	-21.575271	-16.578876	-112.271009
0.850000	-16.078659	-113.604260	-0.135345	-22.904913	-0.135345	-22.904913	-16.078654	-113.604784
0.900000	-15.609661	-114.935208	-0.149207	-24.231682	-0.149207	-24.231682	-15.609655	-114.935765
0.950000	-15.168662	-116.263186	-0.163692	-25.555434	-0.163692	-25.555434	-15.168656	-116.263777
1.000000	-14.752916	-117.588045	-0.178779	-26.876046	-0.178779	-26.876046	-14.752910	-117.588670
1.050000	-14.360075	-118.909657	-0.194450	-28.193402	-0.194450	-28.193402	-14.360068	-118.910316
1.100000	-13.988112	-120.227908	-0.210684	-29.507396	-0.210684	-29.507396	-13.988105	-120.228601
1.150000	-13.635267	-121.542701	-0.227459	-30.817931	-0.227459	-30.817931	-13.635260	-121.543428
1.200000	-13.300003	-122.853952	-0.244753	-32.124919	-0.244753	-32.124919	-13.299996	-122.854712
1.250000	-12.980964	-124.161590	-0.262544	-33.428280	-0.262544	-33.428280	-12.980957	-124.162384
1.300000	-12.677036	-125.465472	-0.280817	-34.727860	-0.280817	-34.727860	-12.677029	-125.466300
1.350000	-12.387069	-126.765628	-0.299540	-36.023676	-0.299540	-36.023676	-12.387062	-126.766489
1.400000	-12.110109	-128.062014	-0.318688	-37.315673	-0.318688	-37.315673	-12.110102	-128.062909
1.450000	-11.845302	-129.354596	-0.338238	-38.603803	-0.338238	-38.603803	-11.845295	-129.355525
1.500000	-11.591878	-130.643347	-0.358166	-39.888026	-0.358166	-39.888026	-11.591871	-130.644308
1.550000	-11.349139	-131.928244	-0.378449	-41.168311	-0.378449	-41.168311	-11.349132	-131.929239
1.600000	-11.116451	-133.209272	-0.399064	-42.444632	-0.399064	-42.444632	-11.116445	-133.210300
1.650000	-10.893239	-134.486420	-0.419986	-43.716969	-0.419986	-43.716969	-10.893232	-134.487482
1.700000	-10.678973	-135.759683	-0.441194	-44.985310	-0.441194	-44.985310	-10.678967	-135.760778
1.750000	-10.473171	-137.029061	-0.462663	-46.249650	-0.462663	-46.249650	-10.473165	-137.030190
1.800000	-10.275387	-138.294557	-0.484372	-47.509987	-0.484372	-47.509987	-10.275381	-138.295719
1.850000	-10.085212	-139.556179	-0.506299	-48.766328	-0.506299	-48.766328	-10.085207	-139.557376
1.900000	-9.902302	-140.813900	-0.528422	-50.018640	-0.528422	-50.018640	-9.902296	-140.815131
1.950000	-9.726302	-142.067735	-0.550721	-51.266939	-0.550721	-51.266939	-9.726297	-142.069000
2.000000	-9.556854	-143.317748	-0.573171	-52.511289	-0.573171	-52.511289	-9.556848	-143.319048
2.050000	-9.393653	-144.563963	-0.595753	-53.751716	-0.595753	-53.751716	-9.393647	-144.565299
2.100000	-9.236417	-145.806410	-0.618446	-54.988249	-0.618446	-54.988249	-9.236411	-145.807781
2.150000	-9.084882	-147.045121	-0.641232	-56.220921	-0.641232	-56.220921	-9.084877	-147.046528
2.200000	-8.938802	-148.280130	-0.664090	-57.449770	-0.664090	-57.449770	-8.938796	-148.281574
2.250000	-8.797944	-149.511478	-0.687003	-58.674835	-0.687003	-58.674835	-8.797939	-149.512958
2.300000	-8.662094	-150.739207	-0.709951	-59.896161	-0.709951	-59.896161	-8.662089	-150.740725
2.350000	-8.531046	-151.963363	-0.732917	-61.113792	-0.732917	-61.113792	-8.531040	-151.964918
2.400000	-8.404608	-153.183994	-0.755884	-62.327780	-0.755884	-62.327780	-8.404603	-153.185587
2.450000	-8.282601	-154.401152	-0.778834	-63.538176	-0.778834	-63.538176	-8.282595	-154.402784
2.500000	-8.164853	-155.614892	-0.801753	-64.745033	-0.801753	-64.745033	-8.164847	-155.616562
2.550000	-8.051258	-156.825200	-0.824620	-65.948334	-0.824620	-65.948334	-8.051252	-156.826909
2.600000	-7.941607	-158.032209	-0.847422	-67.148214	-0.847422	-67.148214	-7.941601	-158.033958
2.650000	-7.835756	-159.235982	-0.870145	-68.344735	-0.870145	-68.344735	-7.835750	-159.237772
2.700000	-7.733569	-160.436585	-0.892774	-69.537957	-0.892774	-69.537957	-7.733563	-160.438416
2.750000	-7.634917	-161.634084	-0.915295	-70.727946	-0.915295	-70.727946	-7.634910	-161.635956
2.800000	-7.539676	-162.828549	-0.937693	-71.914767	-0.937693	-71.914767	-7.539670	-162.830462
2.850000	-7.447731	-164.020050	-0.959955	-73.098488	-0.959955	-73.098488	-7.447724	-164.022005
2.900000	-7.358970	-165.208660	-0.982069	-74.279176	-0.982069	-74.279176	-7.358962	-165.210658
2.950000	-7.273287	-166.394454	-1.004022	-75.456902	-1.004022	-75.456902	-7.273280	-166.396495
3.000000	-7.190584	-167.577508	-1.025801	-76.631737	-1.025801	-76.631737	-7.190576	-167.579592
3.050000	-7.110764	-168.757900	-1.047395	-77.803755	-1.047395	-77.803755	-7.110756	-168.760027
3.100000	-7.033736	-169.935707	-1.068793	-78.973029	-1.068793	-78.973029	-7.033728	-169.937879
3.150000	-6.959697	-171.110670	-1.089944	-80.139267	-1.089944	-80.139267	-6.959689	-171.112886
3.200000	-6.888014	-172.283538	-1.110910	-81.303264	-1.110910	-81.303264	-6.888005	-172.285799
3.250000	-6.818873	-173.454067	-1.131646	-82.464747	-1.131646	-82.464747	-6.818865	-173.456374
3.300000	-6.752201	-174.622340	-1.152144	-83.623795	-1.152144	-83.623795	-6.752192	-174.624692
3.350000	-6.687924	-175.788441	-1.172392	-84.780488	-1.172392	-84.780488	-6.687915	-175.790839
3.400000	-6.625974	-176.952453	-1.192382	-85.934907	-1.192382	-85.934907	-6.625965	-176.954898
3.450000	-6.566285	-178.114462	-1.212104	-87.087132	-1.212104	-87.087132	-6.566276	-178.116953
3.500000	-6.508794	-179.274551	-1.231551	-88.237247	-1.231551	-88.237247	-6.508785	-179.277090
3.550000	-6.453442	179.567192	-1.250713	-89.385334	-1.250713	-89.385334	-6.453432	179.564607
3.600000	-6.400169	178.410684	-1.269583	-90.531478	-1.269583	-90.531478	-6.400159	178.408051
3.650000	-6.348921	177.255839	-1.288153	-91.675764	-1.288153	-91.675764	-6.348911	177.253158
3.700000	-6.299646	176.102571	-1.306416	-92.818277	-1.306416	-92.818277	-6.299635	176.099841
3.750000	-6.252292	174.950794	-1.324366	-93.959104	-1.324366	-93.959104	-6.252281	174.948016
3.800000	-6.206881	173.800481	-1.341979	-95.098265	-1.341979	-95.098265	-6.206870	173.797654
3.850000	-6.163293	172.651481	-1.359266	-96.235923	-1.359266	-96.235923	-6.163282	172.648604
3.900000	-6.121485	171.503709	-1.376220	-97.372164	-1.376220	-97.372164	-6.121473	171.500783
3.950000	-6.081413	170.357082	-1.392836	-98.507078	-1.392836	-98.507078	-6.081401	170.354107
4.000000	-6.043037	169.211516	-1.409110	-99.640754	-1.409110	-99.640754	-6.043025	169.208490
4.050000	-6.006317	168.066927	-1.425037	-100.773279	-1.425037	-100.773279	-6.006305	168.063850
4.100000	-5.971215	166.923233	-1.440612	-101.904745	-1.440612	-101.904745	-5.971203	166.920105
4.150000	-5.937695	165.780351	-1.455831	-103.035239	-1.455831	-103.035239	-5.937682	165.777172
4.200000	-5.905721	164.638200	-1.470693	-104.164852	-1.470693	-104.164852	-5.905709	164.634970
4.250000	-5.875261	163.496701	-1.485192	-105.293674	-1.485192	-105.293674	-5.875249	163.493418
4.300000	-5.846282	162.355772	-1.499327	-106.421792	-1.499327	-106.421792	-5.846269	162.352437
4.350000	-5.818752	161.215336	-1.513095	-107.549298	-1.513095	-107.549298	-5.818739	161.211948
4.400000	-5.792643	160.075314	-1.526494	-108.676279	-1.526494	-108.676279	-5.792630	160.071874
4.450000	-5.767924	158.935630	-1.539523	-109.802825	-1.539523	-109.802825	-5.767910	158.932136
4.500000	-5.744568	157.796207	-1.552180	-110.929024	-1.552180	-110.929024	-5.744554	157.792660
4.550000	-5.722548	156.656972	-1.564464	-112.054964	-1.564464	-112.054964	-5.722535	156.653370
4.600000	-5.701839	155.517850	-1.576376	-113.180732	-1.576376	-113.180732	-5.701825	155.514193
4.650000	-5.682415	154.378768	-1.587913	-114.306415	-1.587913	-114.306415	-5.682401	154.375057
4.700000	-5.664253	153.239656	-1.599078	-115.432101	-1.599078	-115.432101	-5.664238	153.235890
4.750000	-5.647328	152.100444	-1.609870	-116.557873	-1.609870	-116.557873	-5.647313	152.096621
4.800000	-5.631619	150.961062	-1.620290	-117.683817	-1.620290	-117.683817	-5.631604	150.957183
4.850000	-5.617103	149.821442	-1.630339	-118.810016	-1.630339	-118.810016	-5.617088	149.817506
4.900000	-5.603760	148.681519	-1.640018	-119.936555	-1.640018	-119.936555	-5.603745	148.677526
4.950000	-5.591568	147.541228	-1.649330	-121.063514	-1.649330	-121.063514	-5.591553	147.537177
5.000000	-5.580509	146.400505	-1.658276	-122.190976	-1.658276	-122.190976	-5.580494	146.396396
5.050000	-5.570610	145.259263	-1.666843	-123.319048	-1.666843	-123.319048	-5.570594	145.255095
5.100000	-5.561803	144.117460	-1.675049	-124.447789	-1.675049	-124.447789	-5.561787	144.113233
5.150000	-5.554071	142.975038	-1.682899	-125.577275	-1.682899	-125.577275	-5.554055	142.970751
5.200000	-5.547395	141.831939	-1.690394	-126.707583	-1.690394	-126.707583	-5.547379	141.827591
5.250000	-5.541759	140.688105	-1.697538	-127.838788	-1.697538	-127.838788	-5.541742	140.683697
5.300000	-5.537146	139.543484	-1.704336	-128.970964	-1.704336	-128.970964	-5.537128	139.539013
5.350000	-5.533538	138.398020	-1.710791	-130.104183	-1.710791	-130.104183	-5.533520	138.393488
5.400000	-5.530920	137.251663	-1.716907	-131.238516	-1.716907	-131.238516	-5.530902	137.247068
5.450000	-5.529276	136.104362	-1.722690	-132.374033	-1.722690	-132.374033	-5.529258	136.099704
5.500000	-5.528591	134.956069	-1.728143	-133.510803	-1.728143	-133.510803	-5.528572	134.951346
5.550000	-5.528849	133.806736	-1.733271	-134.648890	-1.733271	-134.648890	-5.528830	133.801949
5.600000	-5.530035	132.656318	-1.738081	-135.788362	-1.738081	-135.788362	-5.530016	132.651466
5.650000	-5.532135	131.504771	-1.742577	-136.929281	-1.742577	-136.929281	-5.532116	131.499853
5.700000	-5.535134	130.352053	-1.746765	-138.071709	-1.746765	-138.071709	-5.535114	130.347068
5.750000	-5.539018	129.198122	-1.750650	-139.215706	-1.750650	-139.215706	-5.538997	129.193070
5.800000	-5.543772	128.042940	-1.754239	-140.361332	-1.754239	-140.361332	-5.543751	128.037819
5.850000	-5.549382	126.886469	-1.757538	-141.508643	-1.757538	-141.508643	-5.549361	126.881280
5.900000	-5.555835	125.728673	-1.760553	-142.657694	-1.760553	-142.657694	-5.555813	125.723414
5.950000	-5.563117	124.569517	-1.763290	-143.808539	-1.763290	-143.808539	-5.563094	124.564189
6.000000	-5.571213	123.408970	-1.765756	-144.961230	-1.765756	-144.961230	-5.571190	123.403572
6.050000	-5.580110	122.247001	-1.767958	-146.115817	-1.767958	-146.115817	-5.580087	122.241531
6.100000	-5.589794	121.083579	-1.769903	-147.272349	-1.769903	-147.272349	-5.589770	121.078037
6.150000	-5.600253	119.918678	-1.771598	-148.430871	-1.771598	-148.430871	-5.600228	119.913063
6.200000	-5.611471	118.752271	-1.773049	-149.591428	-1.773049	-149.591428	-5.611446	118.746583
6.250000	-5.623435	117.584335	-1.774264	-150.754064	-1.774264	-150.754064	-5.623410	117.578572
6.300000	-5.636163	116.414777	-1.775242	-151.918913	-1.775242	-151.918913	-5.636137	116.408940
6.350000	-5.649608	115.243645	-1.775998	-153.085925	-1.775998	-153.085925	-5.649582	115.237733
6.400000	-5.663757	114.070919	-1.776542	-154.255136	-1.776542	-154.255136	-5.663730	114.064930
6.450000	-5.678596	112.896581	-1.776880	-155.426582	-1.776880	-155.426582	-5.678568	112.890517
6.500000	-5.694110	111.720618	-1.777020	-156.600296	-1.777020	-156.600296	-5.694082	111.714476
6.550000	-5.710287	110.543014	-1.776970	-157.776310	-1.776970	-157.776310	-5.710258	110.536795
6.600000	-5.727111	109.363759	-1.776738	-158.954654	-1.776738	-158.954654	-5.727081	109.357461
6.650000	-5.744568	108.182841	-1.776332	-160.135355	-1.776332	-160.135355	-5.744538	108.176464
6.700000	-5.762644	107.000252	-1.775758	-161.318441	-1.775758	-161.318441	-5.762613	106.993796
6.750000	-5.781325	105.815987	-1.775026	-162.503935	-1.775026	-162.503935	-5.781293	105.809451
6.800000	-5.800596	104.630039	-1.774143	-163.691860	-1.774143	-163.691860	-5.800563	104.623423
6.850000	-5.820441	103.442407	-1.773117	-164.882237	-1.773117	-164.882237	-5.820408	103.435709
6.900000	-5.840847	102.253088	-1.771956	-166.075084	-1.771956	-166.075084	-5.840813	102.246309
6.950000	-5.861797	101.062084	-1.770667	-167.270420	-1.770667	-167.270420	-5.861762	101.055223
7.000000	-5.883276	99.869397	-1.769259	-168.468258	-1.769259	-168.468258	-5.883241	99.862454
7.050000	-5.905270	98.675031	-1.767739	-169.668614	-1.767739	-169.668614	-5.905234	98.668006
7.100000	-5.927761	97.478993	-1.766116	-170.871499	-1.766116	-170.871499	-5.927725	97.471885
7.150000	-5.950735	96.281291	-1.764396	-172.076923	-1.764396	-172.076923	-5.950698	96.274100
7.200000	-5.974175	95.081935	-1.762588	-173.284895	-1.762588	-173.284895	-5.974137	95.074660
7.250000	-5.998065	93.880937	-1.760700	-174.495422	-1.760700	-174.495422	-5.998027	93.873578
7.300000	-6.022388	92.678310	-1.758739	-175.708509	-1.758739	-175.708509	-6.022349	92.670868
7.350000	-6.047128	91.474072	-1.756713	-176.924160	-1.756713	-176.924160	-6.047089	91.466546
7.400000	-6.072268	90.268239	-1.754629	-178.142376	-1.754629	-178.142376	-6.072228	90.260630
7.450000	-6.097791	89.060832	-1.752494	-179.363160	-1.752494	-179.363160	-6.097750	89.053139
7.500000	-6.123679	87.851873	-1.750317	179.413491	-1.750317	179.413491	-6.123637	87.844097
7.550000	-6.149926	86.641321	-1.748103	178.187467	-1.748103	178.187467	-6.149884	86.633461
7.600000	-6.176502	85.429269	-1.745861	176.958884	-1.745861	176.958884	-6.176459	85.421325
7.650000	-6.203389	84.215746	-1.743598	175.727747	-1.743598	175.727747	-6.203345	84.207719
7.700000	-6.230568	83.000783	-1.741322	174.494063	-1.741322	174.494063	-6.230524	82.992673
7.750000	-6.258022	81.784412	-1.739038	173.257840	-1.739038	173.257840	-6.257977	81.776220
7.800000	-6.285732	80.566669	-1.736755	172.019087	-1.736755	172.019087	-6.285686	80.558395
7.850000	-6.313680	79.347590	-1.734479	170.777815	-1.734479	170.777815	-6.313633	79.339235
7.900000	-6.341847	78.127216	-1.732216	169.534035	-1.732216	169.534035	-6.341800	78.118779
7.950000	-6.370214	76.905586	-1.729972	168.287760	-1.729972	168.287760	-6.370166	76.897070
8.000000	-6.398763	75.682747	-1.727755	167.039004	-1.727755	167.039004	-6.398714	75.674150
8.050000	-6.427473	74.458742	-1.725570	165.787782	-1.725570	165.787782	-6.427424	74.450067
8.100000	-6.456327	73.233621	-1.723423	164.534109	-1.723423	164.534109	-6.456277	73.224868
8.150000	-6.485305	72.007435	-1.721321	163.278003	-1.721321	163.278003	-6.485254	71.998605
8.200000	-6.514387	70.780236	-1.719269	162.019481	-1.719269	162.019481	-6.514336	70.771330
8.250000	-6.543554	69.552080	-1.717273	160.758560	-1.717273	160.758560	-6.543503	69.543099
8.300000	-6.572787	68.323025	-1.715338	159.495262	-1.715338	159.495262	-6.572735	68.313969
8.350000	-6.602066	67.093129	-1.713471	158.229605	-1.713471	158.229605	-6.602013	67.084001
8.400000	-6.631372	65.862457	-1.711675	156.961610	-1.711675	156.961610	-6.631318	65.853257
8.450000	-6.660684	64.631071	-1.709958	155.691299	-1.709958	155.691299	-6.660631	64.621802
8.500000	-6.689984	63.399041	-1.708323	154.418692	-1.708323	154.418692	-6.689930	63.389703
8.550000	-6.719252	62.166433	-1.706776	153.143813	-1.706776	153.143813	-6.719198	62.157029
8.600000	-6.748469	60.933322	-1.705322	151.866684	-1.705322	151.866684	-6.748414	60.923852
8.650000	-6.777614	59.699779	-1.703964	150.587328	-1.703964	150.587328	-6.777559	59.690246
8.700000	-6.806670	58.465883	-1.702709	149.305769	-1.702709	149.305769	-6.806614	58.456288
8.750000	-6.835616	57.231712	-1.701561	148.022030	-1.701561	148.022030	-6.835560	57.222057
8.800000	-6.864423	55.997341	-1.700529	146.736043	-1.700529	146.736043	-6.864367	55.987629
8.850000	-6.893081	54.762867	-1.699612	145.447928	-1.699612	145.447928	-6.893024	54.753099
8.900000	-6.921571	53.528376	-1.698815	144.157708	-1.698815	144.157708	-6.921514	53.518554
8.950000	-6.949874	52.293955	-1.698143	142.865408	-1.698143	142.865408	-6.949818	52.284082
9.000000	-6.977973	51.059695	-1.697599	141.571053	-1.697599	141.571053	-6.977916	51.049773
9.050000	-7.005849	49.825687	-1.697187	140.274668	-1.697187	140.274668	-7.005792	49.815719
9.100000	-7.033484	48.592027	-1.696912	138.976276	-1.696912	138.976276	-7.033428	48.582014
9.150000	-7.060861	47.358810	-1.696776	137.675904	-1.696776	137.675904	-7.060805	47.348756
9.200000	-7.087962	46.126135	-1.696785	136.373575	-1.696785	136.373575	-7.087906	46.116042
9.250000	-7.114770	44.894102	-1.696941	135.069315	-1.696941	135.069315	-7.114714	44.883973
9.300000	-7.141269	43.662813	-1.697249	133.763147	-1.697249	133.763147	-7.141214	43.652651
9.350000	-7.167442	42.432372	-1.697712	132.455095	-1.697712	132.455095	-7.167387	42.422179
9.400000	-7.193274	41.202884	-1.698334	131.145185	-1.698334	131.145185	-7.193219	41.192663
9.450000	-7.218748	39.974456	-1.699118	129.833439	-1.699118	129.833439	-7.218694	39.964211
9.500000	-7.243849	38.747197	-1.700069	128.519881	-1.700069	128.519881	-7.243796	38.736930
9.550000	-7.268564	37.521217	-1.701190	127.204535	-1.701190	127.204535	-7.268511	37.510931
9.600000	-7.292876	36.296626	-1.702485	125.887425	-1.702485	125.887425	-7.292825	36.286324
9.650000	-7.316773	35.073537	-1.703957	124.568572	-1.703957	124.568572	-7.316723	35.063224
9.700000	-7.340242	33.852065	-1.705610	123.248000	-1.705610	123.248000	-7.340192	33.841742
9.750000	-7.363269	32.632322	-1.707449	121.925731	-1.707449	121.925731	-7.363220	32.621994
9.800000	-7.385841	31.414425	-1.709476	120.601788	-1.709476	120.601788	-7.385795	31.404095
9.850000	-7.407948	30.198490	-1.711696	119.276193	-1.711696	119.276193	-7.407903	30.188161
9.900000	-7.429578	28.984633	-1.714113	117.948967	-1.714113	117.948967	-7.429534	28.974310
9.950000	-7.450719	27.772973	-1.716731	116.620133	-1.716731	116.620133	-7.450677	27.762657
10.000000	-7.471362	26.563625	-1.719554	115.289710	-1.719554	115.289710	-7.471323	26.553322
