! freq	dB(S11)	phase(S11)	dB(S12)	phase(S12)	
!     	dB(S21)	phase(S21)	dB(S22)	phase(S22)	
!S-par simulation data
#  GHz  S  DB  R 50
0.000000	-79.989098	0.000000	-0.000870	0.000000	-0.000870	0.000000	-79.989098	0.000000
0.050000	-31.437913	-95.504163	-0.013522	-5.744228	-0.013522	-5.744228	-31.437921	-95.505208
0.100000	-25.524751	-101.426796	-0.031716	-11.403240	-0.031716	-11.403240	-25.524754	-101.428839
0.150000	-22.139384	-107.269348	-0.052891	-17.035501	-0.052891	-17.035501	-22.139388	-107.272433
0.200000	-19.802669	-113.013705	-0.078635	-22.640180	-0.078635	-22.640180	-19.802676	-113.017864
0.250000	-18.048113	-118.668549	-0.108291	-28.211766	-0.108291	-28.211766	-18.048120	-118.673788
0.300000	-16.673492	-124.247754	-0.140824	-33.745567	-0.140824	-33.745567	-16.673499	-124.254071
0.350000	-15.573233	-129.763217	-0.174984	-39.238820	-0.174984	-39.238820	-15.573239	-129.770613
0.400000	-14.681415	-135.225709	-0.209455	-44.692665	-0.209455	-44.692665	-14.681420	-135.234192
0.450000	-13.956654	-140.642093	-0.243068	-50.109222	-0.243068	-50.109222	-13.956656	-140.651681
0.500000	-13.374124	-146.016640	-0.274674	-55.490670	-0.274674	-55.490670	-13.374124	-146.027358
0.550000	-12.909499	-151.356682	-0.303468	-60.843035	-0.303468	-60.843035	-12.909497	-151.368560
0.600000	-12.550792	-156.666710	-0.328614	-66.170615	-0.328614	-66.170615	-12.550787	-156.679783
0.650000	-12.291346	-161.951637	-0.349274	-71.478555	-0.349274	-71.478555	-12.291338	-161.965951
0.700000	-12.121107	-167.218585	-0.365104	-76.774036	-0.365104	-76.774036	-12.121095	-167.234190
0.750000	-12.041062	-172.473344	-0.375431	-82.063704	-0.375431	-82.063704	-12.041047	-172.490304
0.800000	-12.043923	-177.723224	-0.380430	-87.355208	-0.380430	-87.355208	-12.043905	-177.741609
0.850000	-12.130120	177.025949	-0.380105	-92.655339	-0.380105	-92.655339	-12.130097	177.006054
0.900000	-12.305015	171.768326	-0.374467	-97.971608	-0.374467	-97.971608	-12.304987	171.746815
0.950000	-12.576051	166.498226	-0.363798	-103.312129	-0.363798	-103.312129	-12.576018	166.474963
1.000000	-12.945927	161.212752	-0.348966	-108.681929	-0.348966	-108.681929	-12.945887	161.187576
1.050000	-13.425297	155.910368	-0.330688	-114.086033	-0.330688	-114.086033	-13.425249	155.883073
1.100000	-14.035991	150.590928	-0.309702	-119.531628	-0.309702	-119.531628	-14.035935	150.561225
1.150000	-14.798066	145.260183	-0.287184	-125.021118	-0.287184	-125.021118	-14.798001	145.227684
1.200000	-15.745009	139.929963	-0.264301	-130.556755	-0.264301	-130.556755	-15.744932	139.894109
1.250000	-16.926972	134.623805	-0.242300	-136.139155	-0.242300	-136.139155	-16.926883	134.583743
1.300000	-18.422822	129.387306	-0.222420	-141.766843	-0.222420	-141.766843	-18.422722	129.341643
1.350000	-20.370348	124.316725	-0.205855	-147.436868	-0.205855	-147.436868	-20.370246	124.262931
1.400000	-23.041947	119.652466	-0.193692	-153.144604	-0.193692	-153.144604	-23.041893	119.585139
1.450000	-27.109389	116.238007	-0.186891	-158.884067	-0.186891	-158.884067	-27.109681	116.141631
1.500000	-35.207355	120.024290	-0.186060	-164.647412	-0.186060	-164.647412	-35.212540	119.816003
1.550000	-38.614666	-104.910092	-0.191765	-170.426737	-0.191765	-170.426737	-38.634598	-104.690321
1.600000	-28.278486	-93.857511	-0.204140	-176.212974	-0.204140	-176.212974	-28.281173	-93.802850
1.650000	-23.660936	-96.703807	-0.222966	178.002840	-0.222966	178.002840	-23.662190	-96.684432
1.700000	-20.720573	-101.243685	-0.247766	172.229095	-0.247766	172.229095	-20.721388	-101.239896
1.750000	-18.601361	-106.304068	-0.277781	166.473270	-0.277781	166.473270	-18.601976	-106.309511
1.800000	-16.979635	-111.576989	-0.312005	160.741537	-0.312005	160.741537	-16.980139	-111.588869
1.850000	-15.697955	-116.944855	-0.349232	155.038443	-0.349232	155.038443	-15.698391	-116.961726
1.900000	-14.665375	-122.352631	-0.388118	149.365849	-0.388118	149.365849	-14.665765	-122.373688
1.950000	-13.832846	-127.773033	-0.427279	143.726303	-0.427279	143.726303	-13.833205	-127.797778
2.000000	-13.161701	-133.190361	-0.465238	138.117534	-0.465238	138.117534	-13.162038	-133.218519
2.050000	-12.627626	-138.597702	-0.500607	132.536259	-0.500607	132.536259	-12.627948	-138.629129
2.100000	-12.214584	-143.992996	-0.532064	126.977500	-0.532064	126.977500	-12.214897	-144.027645
2.150000	-11.908988	-149.377931	-0.558583	121.434070	-0.558583	121.434070	-11.909296	-149.415833
2.200000	-11.705812	-154.756121	-0.579083	115.898021	-0.579083	115.898021	-11.706120	-154.797377
2.250000	-11.598103	-160.133084	-0.593048	110.359885	-0.593048	110.359885	-11.598413	-160.177861
2.300000	-11.586958	-165.515209	-0.599865	104.809166	-0.599865	104.809166	-11.587276	-165.563755
2.350000	-11.673346	-170.909242	-0.599427	99.234710	-0.599427	99.234710	-11.673677	-170.961895
2.400000	-11.860483	-176.321051	-0.591995	93.625711	-0.591995	93.625711	-11.860832	-176.378254
2.450000	-12.156151	178.244865	-0.578044	87.971343	-0.578044	87.971343	-12.156526	178.182523
2.500000	-12.573459	172.786374	-0.558306	82.260583	-0.558306	82.260583	-12.573871	172.718098
2.550000	-13.131181	167.306126	-0.533883	76.482993	-0.533883	76.482993	-13.131648	167.230808
2.600000	-13.852454	161.815224	-0.506286	70.631805	-0.506286	70.631805	-13.853000	161.731327
2.650000	-14.774394	156.337062	-0.477146	64.700954	-0.477146	64.700954	-14.775059	156.242340
2.700000	-15.953885	150.918450	-0.448285	58.686389	-0.448285	58.686389	-15.954746	150.809428
2.750000	-17.486020	145.662546	-0.421755	52.584810	-0.421755	52.584810	-17.487231	145.533188
2.800000	-19.528801	140.788284	-0.399484	46.400580	-0.399484	46.400580	-19.530725	140.627451
2.850000	-22.412009	136.884616	-0.383282	40.138681	-0.383282	40.138681	-22.415743	136.667577
2.900000	-26.989600	136.158961	-0.374714	33.806942	-0.374714	33.806942	-27.000370	135.813215
2.950000	-36.322548	161.814585	-0.375223	27.414482	-0.375223	27.414482	-36.421749	161.098128
3.000000	-32.263773	-96.015235	-0.385312	20.975247	-0.385312	20.975247	-32.303797	-95.507724
3.050000	-25.086978	-86.604770	-0.404986	14.502639	-0.404986	14.502639	-25.094635	-86.390685
3.100000	-21.185505	-88.979856	-0.433651	8.009468	-0.433651	8.009468	-21.188785	-88.861604
3.150000	-18.600008	-93.547311	-0.470169	1.507065	-0.470169	1.507065	-18.601950	-93.475041
3.200000	-16.734819	-98.869336	-0.512526	-4.995731	-0.512526	-4.995731	-16.736192	-98.825077
3.250000	-15.337844	-104.529112	-0.558214	-11.494599	-0.558214	-11.494599	-15.338935	-104.504543
3.300000	-14.283146	-110.361617	-0.604450	-17.990355	-0.604450	-17.990355	-14.284091	-110.352341
3.350000	-13.502805	-116.288581	-0.648200	-24.489810	-0.648200	-24.489810	-13.503683	-116.292198
3.400000	-12.960872	-122.270594	-0.686280	-31.007190	-0.686280	-31.007190	-12.961738	-122.285932
3.450000	-12.637122	-128.287608	-0.715900	-37.563817	-0.715900	-37.563817	-12.638024	-128.314399
3.500000	-12.530565	-134.329303	-0.734714	-44.188882	-0.734714	-44.188882	-12.531556	-134.368083
3.550000	-12.657711	-140.383773	-0.741170	-50.919691	-0.741170	-50.919691	-12.658866	-140.436018
3.600000	-13.057975	-146.421926	-0.734885	-57.801745	-0.734885	-57.801745	-13.059413	-146.490469
3.650000	-13.806946	-152.364188	-0.717123	-64.888382	-0.717123	-64.888382	-13.808896	-152.454208
3.700000	-15.047594	-157.992903	-0.691401	-72.239571	-0.691401	-72.239571	-15.050564	-158.114330
3.750000	-17.072751	-162.664088	-0.664212	-79.919176	-0.664212	-79.919176	-17.078185	-162.838407
3.800000	-20.604236	-163.807329	-0.646111	-87.994567	-0.646111	-87.994567	-20.618370	-164.093747
3.850000	-27.603105	-142.741162	-0.652043	-96.513524	-0.652043	-96.513524	-27.685701	-143.245305
3.900000	-25.311309	-55.155184	-0.701620	-105.502706	-0.701620	-105.502706	-25.366655	-54.652403
3.950000	-17.634263	-42.882553	-0.818254	-114.946746	-0.818254	-114.946746	-17.644812	-42.619613
4.000000	-13.089297	-46.872559	-1.027265	-124.773116	-1.027265	-124.773116	-13.093414	-46.707192
4.050000	-9.965146	-54.264317	-1.349854	-134.837545	-1.349854	-134.837545	-9.967327	-54.146495
4.100000	-7.667493	-62.835829	-1.799098	-144.942131	-1.799098	-144.942131	-7.668857	-62.746118
4.150000	-5.935401	-71.762757	-2.376240	-154.864261	-2.376240	-154.864261	-5.936348	-71.691757
4.200000	-4.623757	-80.593136	-3.070462	-164.390573	-3.070462	-164.390573	-4.624463	-80.535577
4.250000	-3.629631	-89.058626	-3.859934	-173.371358	-3.859934	-173.371358	-3.630187	-89.011329
4.300000	-2.878320	-97.006180	-4.720094	178.286923	-4.720094	178.286923	-2.878776	-96.967032
4.350000	-2.310880	-104.369671	-5.626151	170.614613	-5.626151	170.614613	-2.311266	-104.337202
4.400000	-1.882212	-111.137738	-6.555708	163.601186	-6.555708	163.601186	-1.882547	-111.110879
4.450000	-1.556800	-117.340953	-7.491222	157.201252	-7.491222	157.201252	-1.557098	-117.318906
4.500000	-1.307618	-123.032412	-8.420817	151.351478	-8.420817	151.351478	-1.307887	-123.014570
4.550000	-1.115315	-128.266527	-9.335713	145.990636	-9.335713	145.990636	-1.115561	-128.252410
4.600000	-0.965632	-133.097266	-10.230021	141.059861	-10.230021	141.059861	-0.965861	-133.086492
4.650000	-0.848083	-137.574749	-11.100004	136.505454	-11.100004	136.505454	-0.848297	-137.567004
4.700000	-0.754940	-141.743813	-11.943474	132.279920	-11.943474	132.279920	-0.755142	-141.738839
4.750000	-0.680485	-145.643702	-12.759322	128.342009	-12.759322	128.342009	-0.680677	-145.641282
4.800000	-0.620898	-149.299812	-13.543173	124.665467	-13.543173	124.665467	-0.621081	-149.299757
4.850000	-0.571947	-152.761274	-14.304307	121.198448	-14.304307	121.198448	-0.572123	-152.763437
4.900000	-0.531895	-156.040967	-15.037843	117.928030	-15.037843	117.928030	-0.532066	-156.045212
4.950000	-0.498895	-159.160383	-15.744392	114.831965	-15.744392	114.831965	-0.499060	-159.166595
5.000000	-0.471531	-162.137947	-16.424679	111.891208	-16.424679	111.891208	-0.471691	-162.146024
5.050000	-0.448863	-164.984651	-17.076367	109.094773	-17.076367	109.094773	-0.449019	-164.994499
5.100000	-0.429827	-167.720039	-17.703757	106.422059	-17.703757	106.422059	-0.429980	-167.731580
5.150000	-0.413774	-170.355711	-18.307583	103.861021	-18.307583	103.861021	-0.413923	-170.368876
5.200000	-0.400187	-172.901765	-18.888556	101.401122	-18.888556	101.401122	-0.400333	-172.916492
5.250000	-0.388653	-175.367027	-19.447355	99.033082	-19.447355	99.033082	-0.388797	-175.383261
5.300000	-0.378842	-177.759245	-19.984622	96.748678	-19.984622	96.748678	-0.378983	-177.776935
5.350000	-0.370484	179.914757	-20.500963	94.540569	-20.500963	94.540569	-0.370623	179.895656
5.400000	-0.363360	177.648938	-20.996945	92.402157	-20.996945	92.402157	-0.363496	177.628467
5.450000	-0.357588	175.454753	-21.458297	90.347063	-21.458297	90.347063	-0.357721	175.432960
5.500000	-0.352313	173.287471	-21.920168	88.323290	-21.920168	88.323290	-0.352445	173.264375
5.550000	-0.347941	171.173978	-22.356412	86.362062	-22.356412	86.362062	-0.348071	171.149615
5.600000	-0.344213	169.098905	-22.777093	84.445509	-22.777093	84.445509	-0.344341	169.073302
5.650000	-0.341069	167.062309	-23.180198	82.573113	-23.180198	82.573113	-0.341194	167.035492
5.700000	-0.338506	165.064188	-23.562177	80.744873	-23.562177	80.744873	-0.338630	165.036184
5.750000	-0.336318	163.092964	-23.932984	78.946554	-23.932984	78.946554	-0.336440	163.063792
5.800000	-0.334652	161.159397	-24.278422	77.190123	-24.278422	77.190123	-0.334772	161.129083
5.850000	-0.333222	159.243943	-24.617772	75.452744	-24.617772	75.452744	-0.333340	159.212500
5.900000	-0.332262	157.364716	-24.928587	73.753468	-24.928587	73.753468	-0.332378	157.332171
5.950000	-0.331443	155.496943	-25.237335	72.065198	-25.237335	72.065198	-0.331558	155.463304
6.000000	-0.331048	153.663533	-25.515257	70.409950	-25.515257	70.409950	-0.331161	153.628825
6.050000	-0.330730	151.836559	-25.794283	68.760077	-25.794283	68.760077	-0.330841	151.800788
6.100000	-0.330797	150.041767	-26.040903	67.137087	-26.040903	67.137087	-0.330905	150.004959
6.150000	-0.330896	148.249682	-26.291116	65.515911	-26.291116	65.515911	-0.331002	148.211838
6.200000	-0.331346	146.487362	-26.507908	63.914688	-26.507908	63.914688	-0.331450	146.448508
6.250000	-0.331796	144.725042	-26.730250	62.313466	-26.730250	62.313466	-0.331898	144.685178
6.300000	-0.332571	142.989888	-26.918589	60.724768	-26.918589	60.724768	-0.332671	142.949040
6.350000	-0.333346	141.254734	-27.111102	59.136070	-27.111102	59.136070	-0.333443	141.212903
6.400000	-0.334377	139.540243	-27.275183	57.551498	-27.275183	57.551498	-0.334471	139.497449
6.450000	-0.335431	137.827631	-27.439390	55.967302	-27.439390	55.967302	-0.335523	137.783877
6.500000	-0.336688	136.130409	-27.579836	54.381159	-27.579836	54.381159	-0.336778	136.085713
6.550000	-0.337987	134.436265	-27.717126	52.794627	-27.717126	52.794627	-0.338073	134.390632
6.600000	-0.339448	132.753258	-27.834571	51.202057	-27.834571	51.202057	-0.339532	132.706703
6.650000	-0.340964	131.073962	-27.946187	49.607475	-27.946187	49.607475	-0.341045	131.026492
6.700000	-0.342611	129.402398	-28.041257	48.004403	-28.041257	48.004403	-0.342689	129.354028
6.750000	-0.344324	127.734701	-28.128292	46.397086	-28.128292	46.397086	-0.344399	127.685436
6.800000	-0.346144	126.072049	-28.201578	44.780145	-28.201578	44.780145	-0.346215	126.021903
6.850000	-0.348039	124.413002	-28.264961	43.156327	-28.264961	43.156327	-0.348108	124.361984
6.900000	-0.350021	122.756929	-28.317001	41.522769	-28.317001	41.522769	-0.350086	122.705050
6.950000	-0.352089	121.103831	-28.357490	39.879468	-28.357490	39.879468	-0.352150	121.051101
7.000000	-0.354226	119.452168	-28.388756	38.227075	-28.388756	38.227075	-0.354283	119.398597
7.050000	-0.356460	117.802516	-28.406926	36.561953	-28.406926	36.561953	-0.356514	117.748116
7.100000	-0.358749	116.153228	-28.417807	34.888943	-28.417807	34.888943	-0.358799	116.098008
7.150000	-0.361147	114.504671	-28.414048	33.200161	-28.414048	33.200161	-0.361193	114.448646
7.200000	-0.363587	112.855829	-28.404846	31.505095	-28.404846	31.505095	-0.363628	112.799005
7.250000	-0.366151	111.206133	-28.379355	29.791179	-28.379355	29.791179	-0.366188	111.148528
7.300000	-0.368745	109.555888	-28.350274	28.072867	-28.350274	28.072867	-0.368777	109.497506
7.350000	-0.371481	107.902894	-28.303050	26.332580	-28.303050	26.332580	-0.371509	107.843757
7.400000	-0.374233	106.249449	-28.254197	24.590002	-28.254197	24.590002	-0.374257	106.189558
7.450000	-0.377153	104.591038	-28.185032	22.822222	-28.185032	22.822222	-0.377171	104.530417
7.500000	-0.380074	102.932627	-28.116414	21.054443	-28.116414	21.054443	-0.380087	102.871276
7.550000	-0.383193	101.266675	-28.024887	19.258055	-28.024887	19.258055	-0.383201	101.204623
7.600000	-0.386313	99.600723	-27.934314	17.461667	-27.934314	17.461667	-0.386316	99.537970
7.650000	-0.389636	97.925870	-27.821872	15.637940	-27.821872	15.637940	-0.389634	97.862443
7.700000	-0.392979	96.250208	-27.708822	13.811728	-27.708822	13.811728	-0.392971	96.186109
7.750000	-0.396533	94.564563	-27.574901	11.959474	-27.574901	11.959474	-0.396519	94.499819
7.800000	-0.400129	92.876923	-27.438621	10.102012	-27.438621	10.102012	-0.400110	92.811538
7.850000	-0.403947	91.178475	-27.282521	8.219803	-27.282521	8.219803	-0.403921	91.112475
7.900000	-0.407839	89.476424	-27.122009	6.329345	-27.122009	6.329345	-0.407807	89.409819
7.950000	-0.411963	87.762987	-26.942886	4.415422	-26.942886	4.415422	-0.411925	87.695798
8.000000	-0.416205	86.043856	-26.756857	2.489765	-26.756857	2.489765	-0.416161	85.976096
8.050000	-0.420694	84.313003	-26.553710	0.541931	-26.553710	0.541931	-0.420643	84.244694
8.100000	-0.425360	82.573777	-26.340561	-1.421745	-26.340561	-1.421745	-0.425302	82.504934
8.150000	-0.430286	80.822755	-26.112213	-3.406259	-26.112213	-3.406259	-0.430222	80.753398
8.200000	-0.435473	79.059937	-25.869970	-5.411610	-25.869970	-5.411610	-0.435402	78.990087
8.250000	-0.440932	77.285556	-25.615054	-7.436319	-25.615054	-7.436319	-0.440855	77.215229
8.300000	-0.446774	75.494984	-25.341289	-9.488127	-25.341289	-9.488127	-0.446689	75.424205
8.350000	-0.452846	73.695306	-25.061255	-11.554621	-25.061255	-11.554621	-0.452755	73.624087
8.400000	-0.459379	71.877412	-24.761668	-13.650485	-24.761668	-13.650485	-0.459281	71.805779
8.450000	-0.466527	70.036702	-24.436851	-15.782221	-24.436851	-15.782221	-0.466422	69.964681
8.500000	-0.474128	68.180206	-24.099749	-17.938440	-24.099749	-17.938440	-0.474016	68.107816
8.550000	-0.482206	66.307322	-23.751183	-20.119997	-23.751183	-20.119997	-0.482087	66.234580
8.600000	-0.491315	64.401179	-23.367806	-22.352354	-23.367806	-22.352354	-0.491189	64.328119
8.650000	-0.501143	62.473684	-22.970122	-24.617066	-22.970122	-24.617066	-0.501011	62.400324
8.700000	-0.511729	60.524163	-22.559617	-26.915120	-22.559617	-26.915120	-0.511590	60.450521
8.750000	-0.523796	58.534064	-22.113286	-29.274379	-22.113286	-29.274379	-0.523650	58.460172
8.800000	-0.537250	56.509296	-21.643381	-31.685861	-21.643381	-31.685861	-0.537098	56.435174
8.850000	-0.552022	54.453025	-21.158100	-34.144820	-21.158100	-34.144820	-0.551864	54.378693
8.900000	-0.569010	52.346422	-20.637910	-36.679697	-20.637910	-36.679697	-0.568846	52.271906
8.950000	-0.588841	50.181547	-20.079333	-39.302799	-20.079333	-39.302799	-0.588672	50.106870
9.000000	-0.611199	47.968691	-19.501430	-41.998813	-19.501430	-41.998813	-0.611026	47.893870
9.050000	-0.637118	45.690924	-18.891865	-44.793691	-18.891865	-44.793691	-0.636942	45.615980
9.100000	-0.669349	43.310800	-18.220647	-47.745769	-18.220647	-47.745769	-0.669171	43.235755
9.150000	-0.707066	40.851549	-17.523819	-50.820462	-17.523819	-50.820462	-0.706888	40.776412
9.200000	-0.751076	38.304580	-16.803128	-54.031380	-16.803128	-54.031380	-0.750898	38.229364
9.250000	-0.808487	35.592941	-16.005145	-57.501612	-16.005145	-57.501612	-0.808315	35.517651
9.300000	-0.880470	32.724432	-15.158265	-61.222582	-15.158265	-61.222582	-0.880306	32.649066
9.350000	-0.973255	29.658888	-14.253541	-65.264337	-14.253541	-65.264337	-0.973104	29.583434
9.400000	-1.098624	26.327424	-13.271447	-69.750789	-13.271447	-69.750789	-1.098497	26.251850
9.450000	-1.265851	22.710478	-12.232090	-74.733062	-12.232090	-74.733062	-1.265758	22.634737
9.500000	-1.504418	18.697392	-11.108251	-80.446557	-11.108251	-80.446557	-1.504380	18.621396
9.550000	-1.846330	14.249267	-9.919496	-87.047926	-9.919496	-87.047926	-1.846376	14.172888
9.600000	-2.371168	9.288578	-8.657396	-94.942692	-8.657396	-94.942692	-2.371356	9.211603
9.650000	-3.176631	3.988245	-7.378284	-104.375734	-7.378284	-104.375734	-3.177062	3.910403
9.700000	-4.484619	-0.953799	-6.139891	-115.902640	-6.139891	-115.902640	-4.485523	-1.032791
9.750000	-6.551062	-3.072245	-5.081064	-129.631385	-5.081064	-129.631385	-6.552946	-3.151765
9.800000	-9.334767	4.892202	-4.375661	-145.259554	-4.375661	-145.259554	-9.338498	4.819156
9.850000	-10.500923	29.475377	-4.157610	-161.580658	-4.157610	-161.580658	-10.504654	29.425494
9.900000	-8.420238	47.461957	-4.408424	-177.025436	-4.408424	-177.025436	-8.421211	47.418363
9.950000	-6.153825	50.671925	-4.980343	169.456410	-4.980343	169.456410	-6.153533	50.623973
10.000000	-4.619950	48.154807	-5.701502	158.065918	-5.701502	158.065918	-4.619216	48.103550
