! freq	dB(S11)	phase(S11)	dB(S12)	phase(S12)	
!     	dB(S21)	phase(S21)	dB(S22)	phase(S22)	
!S-par simulation data
#  GHz  S  DB  R 50
0.000000	-76.430796	0.000000	-0.001310	0.000000	-0.001310	0.000000	-76.430796	0.000000
0.050000	-29.427569	-96.936688	-0.020742	-8.064486	-0.020742	-8.064486	-29.435530	-98.241396
0.100000	-23.552837	-104.727258	-0.046106	-16.021527	-0.046106	-16.021527	-23.563014	-107.320227
0.150000	-20.224455	-112.177214	-0.078358	-23.916190	-0.078358	-23.916190	-20.235813	-116.059800
0.200000	-17.965107	-119.484654	-0.116608	-31.753205	-0.116608	-31.753205	-17.977076	-124.657909
0.250000	-16.310757	-126.684926	-0.158663	-39.530650	-0.158663	-39.530650	-16.322958	-133.150000
0.300000	-15.059736	-133.793513	-0.202343	-47.246377	-0.202343	-47.246377	-15.071901	-141.552127
0.350000	-14.105528	-140.820023	-0.245353	-54.901248	-0.245353	-54.901248	-14.117460	-149.874618
0.400000	-13.382758	-147.773632	-0.285502	-62.500543	-0.285502	-62.500543	-13.394304	-158.127483
0.450000	-12.852283	-154.662799	-0.320763	-70.051768	-0.320763	-70.051768	-12.863318	-166.320301
0.500000	-12.490373	-161.497276	-0.349329	-77.565249	-0.349329	-77.565249	-12.500793	-174.464358
0.550000	-12.278444	-168.289763	-0.370044	-85.054661	-0.370044	-85.054661	-12.288170	177.425849
0.600000	-12.208010	-175.052384	-0.382124	-92.534302	-0.382124	-92.534302	-12.216984	169.335683
0.650000	-12.276705	178.203088	-0.385295	-100.019267	-0.385295	-100.019267	-12.284887	161.249940
0.700000	-12.487988	171.466525	-0.379818	-107.524691	-0.379818	-107.524691	-12.495372	153.153673
0.750000	-12.851612	164.731140	-0.366485	-115.064970	-0.366485	-115.064970	-12.858230	145.033117
0.800000	-13.390184	157.996127	-0.346415	-122.654992	-0.346415	-122.654992	-13.396145	136.875201
0.850000	-14.126714	151.271083	-0.321655	-130.303853	-0.321655	-130.303853	-14.132251	128.673064
0.900000	-15.102648	144.581563	-0.294343	-138.017927	-0.294343	-138.017927	-15.108240	120.424686
0.950000	-16.392323	137.988063	-0.266832	-145.802871	-0.266832	-145.802871	-16.399056	112.133901
1.000000	-18.112749	131.619134	-0.241655	-153.657316	-0.241655	-153.657316	-18.123257	103.820022
1.050000	-20.489822	125.788542	-0.221251	-161.576348	-0.221251	-161.576348	-20.511789	95.531529
1.100000	-24.037832	121.475579	-0.207802	-169.550806	-0.207802	-169.550806	-24.102296	87.415022
1.150000	-30.393545	123.945804	-0.203055	-177.567786	-0.203055	-177.567786	-30.766258	80.269556
1.200000	-38.751711	-142.658820	-0.208264	174.388399	-0.208264	174.388399	-43.899224	-135.189072
1.250000	-27.717028	-103.038839	-0.223812	166.335671	-0.223812	166.335671	-28.012324	-121.470429
1.300000	-22.569781	-104.163992	-0.249296	158.291799	-0.249296	158.291799	-22.667750	-129.130065
1.350000	-19.435985	-109.224366	-0.283620	150.273128	-0.283620	150.273128	-19.485684	-137.334216
1.400000	-17.252009	-115.362998	-0.325030	142.293388	-0.325030	142.293388	-17.281309	-145.643237
1.450000	-15.634578	-121.921541	-0.371258	134.362441	-0.371258	134.362441	-15.652519	-153.952938
1.500000	-14.404363	-128.668242	-0.419725	126.486232	-0.419725	126.486232	-14.414757	-162.223302
1.550000	-13.463619	-135.501623	-0.467637	118.666009	-0.467637	118.666009	-13.468310	-170.436201
1.600000	-12.751286	-142.374517	-0.512302	110.897217	-0.512302	110.897217	-12.751215	-178.585863
1.650000	-12.230697	-149.267742	-0.551224	103.171673	-0.551224	103.171673	-12.226311	173.327746
1.700000	-11.880756	-156.177632	-0.582137	95.477453	-0.582137	95.477453	-11.872179	165.301162
1.750000	-11.685215	-163.109946	-0.603533	87.798051	-0.603533	87.798051	-11.672315	157.326560
1.800000	-11.630281	-170.074314	-0.614979	80.116710	-0.614979	80.116710	-11.612707	149.395112
1.850000	-11.726545	-177.088953	-0.615351	72.414173	-0.615351	72.414173	-11.703612	141.505066
1.900000	-11.980724	175.826809	-0.605031	64.669756	-0.605031	64.669756	-11.951330	133.656333
1.950000	-12.404399	168.654529	-0.585334	56.865309	-0.585334	56.865309	-12.366828	125.858048
2.000000	-13.020536	161.375556	-0.558087	48.985057	-0.558087	48.985057	-12.972051	118.135740
2.050000	-13.876041	153.963934	-0.525440	41.011462	-0.525440	41.011462	-13.811882	110.551532
2.100000	-15.031748	146.398227	-0.490532	32.936313	-0.490532	32.936313	-14.943206	103.222289
2.150000	-16.596527	138.645270	-0.456696	24.754942	-0.456696	24.754942	-16.465565	96.394154
2.200000	-18.773290	130.639901	-0.427421	16.468781	-0.427421	16.468781	-18.555521	90.634039
2.250000	-22.011657	122.191022	-0.406076	8.085799	-0.406076	8.085799	-21.562507	87.534356
2.300000	-27.710631	112.303615	-0.395600	-0.379639	-0.395600	-0.379639	-26.226044	93.443997
2.350000	-45.132412	49.667466	-0.398189	-8.907615	-0.398189	-8.907615	-31.467410	138.819963
2.400000	-28.148139	-75.555282	-0.415024	-17.474236	-0.415024	-17.474236	-26.533529	-170.831118
2.450000	-22.043465	-85.741984	-0.446213	-26.053649	-0.446213	-26.053649	-21.569640	-164.018466
2.500000	-18.594496	-94.522831	-0.490332	-34.620187	-0.490332	-34.620187	-18.355911	-166.877249
2.550000	-16.263283	-102.958484	-0.544605	-43.151115	-0.544605	-43.151115	-16.104596	-172.528823
2.600000	-14.574226	-111.249172	-0.603815	-51.637841	-0.603815	-51.637841	-14.448269	-179.273730
2.650000	-13.317251	-119.464454	-0.668774	-60.083478	-0.668774	-60.083478	-13.204325	173.501772
2.700000	-12.381873	-127.644978	-0.732060	-68.458983	-0.732060	-68.458983	-12.271481	166.074085
2.750000	-11.704477	-135.828705	-0.788771	-76.788832	-0.788771	-76.788832	-11.589544	158.587598
2.800000	-11.247585	-144.060435	-0.835307	-85.091555	-0.835307	-85.091555	-11.122069	151.127928
2.850000	-10.997168	-152.402706	-0.867928	-93.393497	-0.867928	-93.393497	-10.854391	143.759818
2.900000	-10.935625	-160.923111	-0.885204	-101.726641	-0.885204	-101.726641	-10.767742	136.533156
2.950000	-11.072170	-169.721091	-0.885820	-110.127833	-0.885820	-110.127833	-10.867959	129.518962
3.000000	-11.425021	-178.929578	-0.870233	-118.637079	-0.870233	-118.637079	-11.167356	122.823752
3.050000	-12.023785	171.277754	-0.840782	-127.290886	-0.840782	-127.290886	-11.685161	116.611357
3.100000	-12.938462	160.554238	-0.800794	-136.136349	-0.800794	-136.136349	-12.468093	111.240673
3.150000	-14.257394	148.351150	-0.756427	-145.201337	-0.756427	-145.201337	-13.557657	107.314648
3.200000	-16.129139	133.467937	-0.715091	-154.506941	-0.715091	-154.506941	-14.992076	106.025216
3.250000	-18.745421	112.884596	-0.685344	-164.058557	-0.685344	-164.058557	-16.706570	109.619949
3.300000	-21.851233	78.178192	-0.676335	-173.843935	-0.676335	-173.843935	-18.188408	121.283086
3.350000	-22.365101	24.534589	-0.695729	176.176320	-0.695729	176.176320	-18.237361	139.288712
3.400000	-19.087209	-17.252400	-0.748788	166.058275	-0.748788	166.058275	-16.570127	153.310050
3.450000	-15.785124	-41.736857	-0.836890	155.870363	-0.836890	155.870363	-14.380056	158.720889
3.500000	-13.285255	-58.903194	-0.956656	145.682197	-0.956656	145.682197	-12.413375	158.133466
3.550000	-11.439063	-72.948971	-1.099859	135.551240	-1.099859	135.551240	-10.829610	154.277735
3.600000	-10.087766	-85.425842	-1.254068	125.510746	-1.254068	125.510746	-9.613129	148.699250
3.650000	-9.127017	-97.043873	-1.403800	115.556592	-1.403800	115.556592	-8.719065	142.241205
3.700000	-8.497316	-108.209131	-1.532599	105.641434	-1.532599	105.641434	-8.111753	135.364093
3.750000	-8.172273	-119.241122	-1.625193	95.671373	-1.625193	95.671373	-7.771635	128.349613
3.800000	-8.176395	-130.485852	-1.666831	85.488694	-1.666831	85.488694	-7.714534	121.427277
3.850000	-8.568323	-142.381917	-1.651419	74.883662	-1.651419	74.883662	-7.972389	114.895387
3.900000	-9.519816	-155.643427	-1.581024	63.559453	-1.581024	63.559453	-8.635815	109.389256
3.950000	-11.413164	-171.703202	-1.478490	51.156823	-1.478490	51.156823	-9.833183	106.518912
4.000000	-15.284555	164.532662	-1.400243	37.269671	-1.400243	37.269671	-11.573080	110.664036
4.050000	-22.395654	92.822818	-1.453837	21.615346	-1.453837	21.615346	-12.587665	128.822548
4.100000	-14.812627	0.490863	-1.790039	4.361068	-1.790039	4.361068	-10.434435	148.503561
4.150000	-8.778571	-30.396715	-2.543244	-13.627037	-2.543244	-13.627037	-7.141309	151.772326
4.200000	-5.456378	-51.806403	-3.746138	-30.976265	-3.746138	-30.976265	-4.650655	145.124790
4.250000	-3.531475	-69.184714	-5.291690	-46.543074	-5.291690	-46.543074	-3.055243	135.560583
4.300000	-2.399010	-83.421944	-7.020314	-59.881703	-7.020314	-59.881703	-2.081171	125.937682
4.350000	-1.718674	-95.106851	-8.799462	-71.128827	-8.799462	-71.128827	-1.487797	117.167876
4.400000	-1.294133	-104.830713	-10.558099	-80.678963	-10.558099	-80.678963	-1.115984	109.368860
4.450000	-1.022239	-113.024554	-12.250451	-88.872063	-12.250451	-88.872063	-0.877978	102.451982
4.500000	-0.839483	-120.089616	-13.874709	-96.051161	-13.874709	-96.051161	-0.718369	96.239626
4.550000	-0.716430	-126.209777	-15.392244	-102.375564	-15.392244	-102.375564	-0.611257	90.646495
4.600000	-0.626860	-131.686688	-16.852294	-108.116006	-16.852294	-108.116006	-0.533463	85.489295
4.650000	-0.561910	-136.602460	-18.230451	-113.346223	-18.230451	-113.346223	-0.477152	80.721535
4.700000	-0.513357	-141.072673	-19.535463	-118.171086	-19.535463	-118.171086	-0.435063	76.270423
4.750000	-0.475654	-145.202392	-20.790145	-122.686298	-20.790145	-122.686298	-0.402336	72.066040
4.800000	-0.447402	-148.984947	-21.945813	-126.886219	-21.945813	-126.886219	-0.377718	68.118841
4.850000	-0.424400	-152.542451	-23.065120	-130.882297	-23.065120	-130.882297	-0.357575	64.342596
4.900000	-0.405605	-155.902212	-24.146300	-134.699749	-24.146300	-134.699749	-0.341009	60.719112
4.950000	-0.390159	-159.088298	-25.188905	-138.360856	-25.188905	-138.360856	-0.327282	57.232305
5.000000	-0.377384	-162.121530	-26.193279	-141.884974	-26.193279	-141.884974	-0.315815	53.868206
5.050000	-0.367257	-164.983332	-27.119028	-145.256797	-27.119028	-145.256797	-0.306585	50.645875
5.100000	-0.358647	-167.735772	-28.017550	-148.532618	-28.017550	-148.532618	-0.298639	47.516841
5.150000	-0.351327	-170.389139	-28.887904	-151.722340	-28.887904	-151.722340	-0.291788	44.474087
5.200000	-0.345104	-172.952773	-29.729743	-154.835019	-29.729743	-154.835019	-0.285872	41.511229
5.250000	-0.339815	-175.435062	-30.543106	-157.878870	-30.543106	-157.878870	-0.280757	38.622518
5.300000	-0.335530	-177.822739	-31.299512	-160.844782	-31.299512	-160.844782	-0.276512	35.823120
5.350000	-0.331863	179.851869	-32.033860	-163.761099	-32.033860	-163.761099	-0.272810	33.084689
5.400000	-0.328742	177.583886	-32.745579	-166.632924	-32.745579	-166.632924	-0.269595	30.403816
5.450000	-0.326108	175.368795	-33.434416	-169.465033	-33.434416	-169.465033	-0.266819	27.777334
5.500000	-0.323904	173.202439	-34.100344	-172.261872	-34.100344	-172.261872	-0.264437	25.202316
5.550000	-0.322399	171.119758	-34.681477	-175.003328	-34.681477	-175.003328	-0.262720	22.720409
5.600000	-0.320894	169.037077	-35.304297	-177.744784	-35.304297	-177.744784	-0.261002	20.238501
5.650000	-0.319756	167.000832	-35.893985	179.540217	-35.893985	179.540217	-0.259653	17.811920
5.700000	-0.318985	165.011023	-36.440076	176.851674	-36.440076	176.851674	-0.258672	15.440665
5.750000	-0.318214	163.021214	-37.022818	174.163131	-37.022818	174.163131	-0.257691	13.069410
5.800000	-0.318010	161.106356	-37.504703	171.507535	-37.504703	171.507535	-0.257323	10.795623
5.850000	-0.317805	159.191497	-38.014900	168.851939	-38.014900	168.851939	-0.256956	8.521835
5.900000	-0.317826	157.307049	-38.498006	166.205497	-38.498006	166.205497	-0.256855	6.291451
5.950000	-0.318071	155.453013	-38.947490	163.568209	-38.947490	163.568209	-0.257022	4.104471
6.000000	-0.318316	153.598977	-39.421510	160.930921	-39.421510	160.930921	-0.257188	1.917491
6.050000	-0.318928	151.794393	-39.819520	158.302481	-39.819520	158.302481	-0.257835	-0.191513
6.100000	-0.319539	149.989808	-40.236648	155.674042	-40.236648	155.674042	-0.258483	-2.300517
6.150000	-0.320304	148.205286	-40.631749	153.047978	-40.631749	153.047978	-0.259352	-4.374273
6.200000	-0.321221	146.440826	-41.000733	150.424289	-41.000733	150.424289	-0.260445	-6.412781
6.250000	-0.322138	144.676366	-41.386091	147.800600	-41.386091	147.800600	-0.261538	-8.451289
6.300000	-0.323315	142.944251	-41.713945	145.183312	-41.713945	145.183312	-0.263053	-10.425768
6.350000	-0.324493	141.212136	-42.054661	142.566023	-42.054661	142.566023	-0.264569	-12.400246
6.400000	-0.325783	139.492898	-42.377595	139.955901	-42.377595	139.955901	-0.266289	-14.345559
6.450000	-0.327185	137.786537	-42.680180	137.352945	-42.680180	137.352945	-0.268213	-16.261705
6.500000	-0.328588	136.080175	-42.993688	134.749989	-42.993688	134.749989	-0.270138	-18.177851
6.550000	-0.330191	134.393897	-43.263306	132.176225	-43.263306	132.176225	-0.272465	-20.040775
6.600000	-0.331794	132.707619	-43.541563	129.602462	-43.541563	129.602462	-0.274793	-21.903699
6.650000	-0.333487	131.028907	-43.805253	127.054572	-43.805253	127.054572	-0.277321	-23.742344
6.700000	-0.335270	129.357761	-44.052735	124.532556	-44.052735	124.532556	-0.280050	-25.556711
6.750000	-0.337054	127.686616	-44.307476	122.010540	-44.307476	122.010540	-0.282780	-27.371078
6.800000	-0.339004	126.026216	-44.527322	119.571376	-44.527322	119.571376	-0.285913	-29.141223
6.850000	-0.340955	124.365816	-44.752877	117.132212	-44.752877	117.132212	-0.289048	-30.911367
6.900000	-0.342985	122.708812	-44.965374	114.754733	-44.965374	114.754733	-0.292389	-32.661448
6.950000	-0.345095	121.055205	-45.163686	112.438939	-45.163686	112.438939	-0.295938	-34.391467
7.000000	-0.347204	119.401598	-45.366633	110.123145	-45.366633	110.123145	-0.299487	-36.121486
7.050000	-0.349468	117.751161	-45.537716	107.981241	-45.537716	107.981241	-0.303462	-37.815325
7.100000	-0.351732	116.100725	-45.712237	105.839338	-45.712237	105.839338	-0.307438	-39.509163
7.150000	-0.354074	114.450179	-45.871756	103.814447	-45.871756	103.814447	-0.311637	-41.186848
7.200000	-0.356494	112.799524	-46.015367	101.906568	-46.015367	101.906568	-0.316059	-42.848379
7.250000	-0.358914	111.148870	-46.161393	99.998690	-46.161393	99.998690	-0.320482	-44.509910
7.300000	-0.361494	109.494755	-46.267859	98.391697	-46.267859	98.391697	-0.325372	-46.143014
7.350000	-0.364075	107.840639	-46.375647	96.784704	-46.375647	96.784704	-0.330265	-47.776118
7.400000	-0.366743	106.183201	-46.458967	95.360874	-46.458967	95.360874	-0.335409	-49.396996
7.450000	-0.369496	104.522438	-46.517098	94.120207	-46.517098	94.120207	-0.340802	-51.005649
7.500000	-0.372250	102.861675	-46.575620	92.879539	-46.575620	92.879539	-0.346199	-52.614302
7.550000	-0.375193	101.191031	-46.565680	92.052045	-46.565680	92.052045	-0.352133	-54.202682
7.600000	-0.378138	99.520387	-46.555752	91.224552	-46.555752	91.224552	-0.358072	-55.791062
7.650000	-0.381191	97.843103	-46.498522	90.603742	-46.498522	90.603742	-0.364306	-57.371561
7.700000	-0.384352	96.159179	-46.394914	90.189617	-46.394914	90.189617	-0.370837	-58.944179
7.750000	-0.387515	94.475254	-46.292528	89.775492	-46.292528	89.775492	-0.377373	-60.516796
7.800000	-0.390931	92.774323	-46.063538	89.696760	-46.063538	89.696760	-0.384565	-62.078673
7.850000	-0.394348	91.073391	-45.840431	89.618029	-45.840431	89.618029	-0.391762	-63.640550
7.900000	-0.397919	89.361821	-45.538518	89.622941	-45.538518	89.622941	-0.399334	-65.199948
7.950000	-0.401645	87.639613	-45.165915	89.711498	-45.165915	89.711498	-0.407282	-66.756868
8.000000	-0.405372	85.917404	-44.808640	89.800055	-44.808640	89.800055	-0.415237	-68.313787
8.050000	-0.409426	84.172650	-44.292979	89.855095	-44.292979	89.855095	-0.423935	-69.871814
8.100000	-0.413532	82.424493	-43.779676	89.885437	-43.779676	89.885437	-0.432748	-71.430727
8.150000	-0.417931	80.656770	-43.152066	89.773772	-43.152066	89.773772	-0.442185	-72.994728
8.200000	-0.422455	78.880992	-42.507989	89.583505	-42.507989	89.583505	-0.451880	-74.562135
8.250000	-0.427279	77.086084	-41.779513	89.206556	-41.779513	89.206556	-0.462176	-76.137630
8.300000	-0.432341	75.276722	-41.010927	88.682805	-41.010927	88.682805	-0.472928	-77.721282
8.350000	-0.437704	73.449291	-40.194957	87.975549	-40.194957	87.975549	-0.484248	-79.315133
8.400000	-0.443484	71.598448	-39.308470	87.052366	-39.308470	87.052366	-0.496309	-80.925080
8.450000	-0.449554	69.731508	-38.417152	85.980733	-38.417152	85.980733	-0.508888	-82.546094
8.500000	-0.456337	67.828282	-37.415590	84.629364	-37.415590	84.629364	-0.522644	-84.195909
8.550000	-0.463374	65.912356	-36.457554	83.180088	-36.457554	83.180088	-0.536830	-85.855804
8.600000	-0.471641	63.940989	-35.336952	81.390251	-35.336952	81.390251	-0.552911	-87.564694
8.650000	-0.480147	61.959650	-34.302537	79.543228	-34.302537	79.543228	-0.569369	-89.282624
8.700000	-0.490693	59.899201	-33.063474	77.316150	-33.063474	77.316150	-0.588765	-91.076354
8.750000	-0.501898	57.817827	-31.899677	75.009735	-31.899677	75.009735	-0.609073	-92.891376
8.800000	-0.515962	55.644382	-30.569066	72.354236	-30.569066	72.354236	-0.633255	-94.800085
8.850000	-0.532165	53.416182	-29.244981	69.528992	-29.244981	69.528992	-0.660194	-96.766989
8.900000	-0.552642	51.078471	-27.805385	66.364260	-27.805385	66.364260	-0.692615	-98.850278
8.950000	-0.579449	48.617366	-26.268392	62.868435	-26.268392	62.868435	-0.732774	-101.068744
9.000000	-0.613129	46.023377	-24.691785	59.016047	-24.691785	59.016047	-0.781368	-103.432783
9.050000	-0.666675	43.154564	-22.852827	54.477311	-22.852827	54.477311	-0.853326	-106.104259
9.100000	-0.732255	40.124089	-21.096955	49.534839	-21.096955	49.534839	-0.939611	-108.956580
9.150000	-0.838964	36.689786	-19.114160	43.578259	-19.114160	43.578259	-1.073461	-112.266838
9.200000	-1.034092	32.616553	-16.811487	35.914271	-16.811487	35.914271	-1.308712	-116.309987
9.250000	-1.379879	27.853502	-14.352113	26.072114	-14.352113	26.072114	-1.716744	-121.162057
9.300000	-2.118586	22.338124	-11.630305	11.999222	-11.630305	11.999222	-2.579246	-126.967461
9.350000	-3.683129	18.419433	-9.010522	-8.488224	-9.010522	-8.488224	-4.440252	-131.151821
9.400000	-5.880665	26.499650	-7.313986	-36.008818	-7.313986	-36.008818	-7.197906	-120.384524
9.450000	-5.388170	43.710560	-7.269255	-64.037105	-7.269255	-64.037105	-6.367775	-98.095146
9.500000	-3.675714	46.790920	-8.235047	-85.453242	-8.235047	-85.453242	-4.238816	-95.005151
9.550000	-2.655300	43.709958	-9.336996	-100.595493	-9.336996	-100.595493	-3.084038	-98.637005
9.600000	-2.140631	39.616905	-10.232064	-111.625151	-10.232064	-111.625151	-2.534220	-103.031705
9.650000	-1.877341	35.644555	-10.866666	-120.390627	-10.866666	-120.390627	-2.270810	-107.129897
9.700000	-1.752095	31.898788	-11.255959	-127.869857	-11.255959	-127.869857	-2.162619	-110.905324
9.750000	-1.704254	28.300602	-11.455082	-134.712531	-11.455082	-134.712531	-2.141914	-114.490889
9.800000	-1.726112	24.798658	-11.449153	-141.181503	-11.449153	-141.181503	-2.201677	-117.963029
9.850000	-1.801081	21.314626	-11.284856	-147.597913	-11.284856	-147.597913	-2.324714	-121.425554
9.900000	-1.931638	17.805132	-10.975879	-154.162756	-10.975879	-154.162756	-2.515907	-124.938457
9.950000	-2.127516	14.244778	-10.533880	-161.072267	-10.533880	-161.072267	-2.789267	-128.541933
10.000000	-2.406367	10.636602	-9.970710	-168.540534	-9.970710	-168.540534	-3.169594	-132.245508
