! freq	dB(S11)	phase(S11)	dB(S12)	phase(S12)	
!     	dB(S21)	phase(S21)	dB(S22)	phase(S22)	
!S-par simulation data
#  GHz  S  DB  R 50
0.000000	-89.084242	0.000000	-0.000305	0.000000	-0.000305	0.000000	-89.084242	0.000000
0.050000	-31.528708	-93.537750	-0.005599	-3.416577	-0.005599	-3.416577	-31.528726	-93.538474
0.100000	-25.543358	-97.148950	-0.020360	-6.819479	-0.020360	-6.819479	-25.543378	-97.150395
0.150000	-22.074807	-100.670550	-0.042398	-10.200444	-0.042398	-10.200444	-22.074829	-100.672708
0.200000	-19.643567	-104.117810	-0.069903	-13.556334	-0.069903	-13.556334	-19.643593	-104.120674
0.250000	-17.783501	-107.503509	-0.101727	-16.887263	-0.101727	-16.887263	-17.783529	-107.507075
0.300000	-16.287496	-110.838485	-0.137384	-20.193011	-0.137384	-20.193011	-16.287527	-110.842752
0.350000	-15.045325	-114.130946	-0.176600	-23.472754	-0.176600	-23.472754	-15.045357	-114.135913
0.400000	-13.990891	-117.386382	-0.219085	-26.725519	-0.219085	-26.725519	-13.990925	-117.392050
0.450000	-13.082468	-120.606813	-0.264579	-29.949333	-0.264579	-29.949333	-13.082504	-120.613186
0.500000	-12.290735	-123.793691	-0.312681	-33.143025	-0.312681	-33.143025	-12.290772	-123.800772
0.550000	-11.595100	-126.947132	-0.362974	-36.305208	-0.362974	-36.305208	-11.595139	-126.954925
0.600000	-10.980457	-130.066734	-0.414999	-39.434589	-0.414999	-39.434589	-10.980497	-130.075244
0.650000	-10.434647	-133.152781	-0.468242	-42.530928	-0.468242	-42.530928	-10.434687	-133.162014
0.700000	-9.948856	-136.204795	-0.522198	-45.593468	-0.522198	-45.593468	-9.948897	-136.214756
0.750000	-9.515455	-139.223291	-0.576343	-48.622570	-0.576343	-48.622570	-9.515498	-139.233987
0.800000	-9.128415	-142.208811	-0.630166	-51.618713	-0.630166	-51.618713	-9.128459	-142.220251
0.850000	-8.783125	-145.161742	-0.683148	-54.582262	-0.683148	-54.582262	-8.783170	-145.173933
0.900000	-8.475031	-148.083710	-0.734824	-57.514861	-0.734824	-57.514861	-8.475077	-148.096661
0.950000	-8.200931	-150.975755	-0.784717	-60.417587	-0.784717	-60.417587	-8.200978	-150.989476
1.000000	-7.958042	-153.839335	-0.832367	-63.291953	-0.832367	-63.291953	-7.958090	-153.853837
1.050000	-7.744195	-156.675982	-0.877310	-66.139568	-0.877310	-66.139568	-7.744244	-156.691277
1.100000	-7.556247	-159.488933	-0.919318	-68.963743	-0.919318	-68.963743	-7.556297	-159.505034
1.150000	-7.393072	-162.279661	-0.957959	-71.766059	-0.957959	-71.766059	-7.393124	-162.296583
1.200000	-7.253221	-165.050515	-0.992914	-74.548977	-0.992914	-74.548977	-7.253273	-165.068272
1.250000	-7.135497	-167.803979	-1.023895	-77.315119	-1.023895	-77.315119	-7.135551	-167.822588
1.300000	-7.039362	-170.542403	-1.050547	-80.067004	-1.050547	-80.067004	-7.039418	-170.561884
1.350000	-6.963634	-173.268887	-1.072740	-82.807890	-1.072740	-82.807890	-6.963691	-173.289261
1.400000	-6.907770	-175.986243	-1.090287	-85.540781	-1.090287	-85.540781	-6.907827	-176.007532
1.450000	-6.871419	-178.697363	-1.103036	-88.268779	-1.103036	-88.268779	-6.871478	-178.719593
1.500000	-6.854421	178.594793	-1.110868	-90.995078	-1.110868	-90.995078	-6.854481	178.571594
1.550000	-6.856802	175.887209	-1.113702	-93.722954	-1.113702	-93.722954	-6.856865	175.863010
1.600000	-6.878784	173.176822	-1.111490	-96.455757	-1.111490	-96.455757	-6.878848	173.151587
1.650000	-6.920787	170.460534	-1.104222	-99.196903	-1.104222	-99.196903	-6.920853	170.434224
1.700000	-6.983444	167.735227	-1.091926	-101.949869	-1.091926	-101.949869	-6.983511	167.707798
1.750000	-7.067620	164.997778	-1.074670	-104.718183	-1.074670	-104.718183	-7.067690	164.969180
1.800000	-7.174435	162.245076	-1.052563	-107.505413	-1.052563	-107.505413	-7.174507	162.215252
1.850000	-7.305296	159.474052	-1.025759	-110.315162	-1.025759	-110.315162	-7.305371	159.442937
1.900000	-7.462139	156.681504	-0.994421	-113.151296	-0.994421	-113.151296	-7.462217	156.649022
1.950000	-7.647113	153.864475	-0.958806	-116.017528	-0.958806	-116.017528	-7.647195	153.830536
2.000000	-7.862601	151.020427	-0.919254	-118.917247	-0.919254	-118.917247	-7.862687	150.984929
2.050000	-8.111718	148.146889	-0.876124	-121.854011	-0.876124	-121.854011	-8.111809	148.109712
2.100000	-8.398235	145.241727	-0.829834	-124.831306	-0.829834	-124.831306	-8.398332	145.202726
2.150000	-8.726739	142.303277	-0.780863	-127.852505	-0.780863	-127.852505	-8.726843	142.262276
2.200000	-9.102940	139.330423	-0.729752	-130.920965	-0.729752	-130.920965	-9.103053	139.287210
2.250000	-9.534009	136.322876	-0.677112	-134.040010	-0.677112	-134.040010	-9.534134	136.277183
2.300000	-10.028367	133.282113	-0.623647	-137.211992	-0.623647	-137.211992	-10.028506	133.233606
2.350000	-10.597058	130.211177	-0.570110	-140.439305	-0.570110	-140.439305	-10.597216	130.159426
2.400000	-11.254402	127.115832	-0.517324	-143.723933	-0.517324	-143.723933	-11.254586	127.060269
2.450000	-12.019434	124.006017	-0.466175	-147.067355	-0.466175	-147.067355	-12.019654	123.945873
2.500000	-12.918252	120.898404	-0.417613	-150.470469	-0.417613	-150.470469	-12.918525	120.832601
2.550000	-13.988811	117.822120	-0.372686	-153.934137	-0.372686	-153.934137	-13.989164	117.749054
2.600000	-15.286474	114.828272	-0.332415	-157.457131	-0.332415	-157.457131	-15.286960	114.745468
2.650000	-16.901198	112.015062	-0.297867	-161.038020	-0.297867	-161.038020	-16.901920	111.918359
2.700000	-18.992032	109.596075	-0.270122	-164.674449	-0.270122	-164.674449	-18.993240	109.477678
2.750000	-21.883099	108.138472	-0.250244	-168.363090	-0.250244	-168.363090	-21.885545	107.981086
2.800000	-26.410680	109.791737	-0.239259	-172.099614	-0.239259	-172.099614	-26.417944	109.544221
2.850000	-35.680858	135.064898	-0.238221	-175.878990	-0.238221	-175.878990	-35.747017	134.532678
2.900000	-31.896432	-116.774949	-0.247961	-179.694599	-0.247961	-179.694599	-31.925865	-116.408629
2.950000	-24.461940	-105.116912	-0.269202	176.460857	-0.269202	176.460857	-24.467486	-104.961841
3.000000	-20.366077	-104.963339	-0.302556	172.595307	-0.302556	172.595307	-20.368379	-104.876254
3.050000	-17.560893	-107.004990	-0.348469	168.717276	-0.348469	168.717276	-17.562187	-106.950028
3.100000	-15.436486	-109.831086	-0.407212	164.835689	-0.407212	164.835689	-15.437338	-109.794898
3.150000	-13.736082	-113.019500	-0.478931	160.959752	-0.478931	160.959752	-13.736702	-112.995700
3.200000	-12.327710	-116.394144	-0.563508	157.098721	-0.563508	157.098721	-12.328192	-116.379216
3.250000	-11.134272	-119.866560	-0.660574	153.261416	-0.660574	153.261416	-11.134665	-119.858368
3.300000	-10.106751	-123.386212	-0.769654	149.456238	-0.769654	149.456238	-10.107084	-123.383353
3.350000	-9.211868	-126.920527	-0.890117	145.690965	-0.890117	145.690965	-9.212158	-126.922034
3.400000	-8.425844	-130.446963	-1.021198	141.972606	-1.021198	141.972606	-8.426101	-130.452138
3.450000	-7.731045	-133.949060	-1.162042	138.307455	-1.162042	138.307455	-7.731278	-133.957384
3.500000	-7.113974	-137.414292	-1.311708	134.701083	-1.311708	134.701083	-7.114189	-137.425369
3.550000	-6.563576	-140.833762	-1.469123	131.157252	-1.469123	131.157252	-6.563776	-140.847286
3.600000	-6.071071	-144.200668	-1.633245	127.679195	-1.633245	127.679195	-6.071259	-144.216394
3.650000	-5.629199	-147.510041	-1.803026	124.269220	-1.803026	124.269220	-5.629376	-147.527772
3.700000	-5.231861	-150.758415	-1.977434	120.928776	-1.977434	120.928776	-5.232030	-150.777990
3.750000	-4.873872	-153.943574	-2.155464	117.658523	-2.155464	117.658523	-4.874035	-153.964860
3.800000	-4.550997	-157.063640	-2.336131	114.459177	-2.336131	114.459177	-4.551153	-157.086523
3.850000	-4.259126	-160.119016	-2.518531	111.329306	-2.518531	111.329306	-4.259277	-160.143402
3.900000	-3.994899	-163.110122	-2.701816	108.267727	-2.701816	108.267727	-3.995046	-163.135929
3.950000	-3.755374	-166.037952	-2.885207	105.272833	-2.885207	105.272833	-3.755517	-166.065112
4.000000	-3.538371	-168.902328	-3.067847	102.344374	-3.067847	102.344374	-3.538510	-168.930778
4.050000	-3.340839	-171.708075	-3.249316	99.476981	-3.249316	99.476981	-3.340975	-171.737765
4.100000	-3.161119	-174.455938	-3.428931	96.669640	-3.428931	96.669640	-3.161252	-174.486821
4.150000	-2.997427	-177.148212	-3.606166	93.919780	-3.606166	93.919780	-2.997557	-177.180246
4.200000	-2.848181	-179.787331	-3.780554	91.224738	-3.780554	91.224738	-2.848309	-179.820481
4.250000	-2.711976	177.624178	-3.951682	88.581794	-3.951682	88.581794	-2.712102	177.589944
4.300000	-2.587562	175.083736	-4.119185	85.988211	-4.119185	85.988211	-2.587686	175.048448
4.350000	-2.473827	172.588752	-4.282746	83.441264	-4.282746	83.441264	-2.473949	172.552437
4.400000	-2.369861	170.137080	-4.442010	80.938702	-4.442010	80.938702	-2.369981	170.099762
4.450000	-2.274760	167.726084	-4.596739	78.477791	-4.596739	78.477791	-2.274878	167.687785
4.500000	-2.187645	165.352800	-4.746811	76.055475	-4.746811	76.055475	-2.187761	165.313541
4.550000	-2.107814	163.014789	-4.892054	73.669246	-4.892054	73.669246	-2.107928	162.974589
4.600000	-2.034637	160.709684	-5.032325	71.316675	-5.032325	71.316675	-2.034750	160.668559
4.650000	-1.967551	158.435188	-5.167505	68.995417	-5.167505	68.995417	-1.967662	158.393156
4.700000	-1.906052	156.189087	-5.297496	66.703210	-5.297496	66.703210	-1.906161	156.146163
4.750000	-1.849686	153.969244	-5.422220	64.437879	-5.422220	64.437879	-1.849794	153.925444
4.800000	-1.798048	151.773602	-5.541613	62.197333	-5.541613	62.197333	-1.798154	151.728940
4.850000	-1.750772	149.600185	-5.655629	59.979562	-5.655629	59.979562	-1.750877	149.554675
4.900000	-1.707532	147.447094	-5.764233	57.782639	-5.764233	57.782639	-1.707635	147.400749
4.950000	-1.668032	145.312505	-5.867403	55.604714	-5.867403	55.604714	-1.668133	145.265338
5.000000	-1.632009	143.194665	-5.965127	53.444010	-5.965127	53.444010	-1.632108	143.146691
5.050000	-1.599431	141.092845	-6.056947	51.299803	-6.056947	51.299803	-1.599528	141.044075
5.100000	-1.569603	139.003179	-6.143910	49.168135	-6.143910	49.168135	-1.569698	138.953627
5.150000	-1.542775	136.926107	-6.225052	47.049487	-6.225052	47.049487	-1.542868	136.875788
5.200000	-1.518517	134.859051	-6.300986	44.941221	-6.300986	44.941221	-1.518608	134.807976
5.250000	-1.496772	132.800956	-6.371501	42.842275	-6.371501	42.842275	-1.496861	132.749139
5.300000	-1.477448	130.750596	-6.436509	40.751406	-6.436509	40.751406	-1.477534	130.698052
5.350000	-1.460247	128.706118	-6.496492	38.666712	-6.496492	38.666712	-1.460332	128.652859
5.400000	-1.445351	126.666968	-6.550712	36.587656	-6.550712	36.587656	-1.445432	126.613011
5.450000	-1.432302	124.631157	-6.600186	34.512176	-6.600186	34.512176	-1.432381	124.576516
5.500000	-1.421394	122.598056	-6.643890	32.439664	-6.643890	32.439664	-1.421470	122.542748
5.550000	-1.412220	120.566143	-6.682813	30.368532	-6.682813	30.368532	-1.412293	120.510183
5.600000	-1.404925	118.534389	-6.716385	28.297745	-6.716385	28.297745	-1.404996	118.477796
5.650000	-1.399350	116.501712	-6.744959	26.226183	-6.744959	26.226183	-1.399417	116.444503
5.700000	-1.395444	114.467047	-6.768586	24.152749	-6.768586	24.152749	-1.395508	114.409241
5.750000	-1.393262	112.429202	-6.787027	22.076224	-6.787027	22.076224	-1.393323	112.370820
5.800000	-1.392581	110.387586	-6.800917	19.995978	-6.800917	19.995978	-1.392637	110.328646
5.850000	-1.393650	108.340387	-6.809462	17.910169	-6.809462	17.910169	-1.393703	108.280914
5.900000	-1.396143	106.287690	-6.813659	15.818844	-6.813659	15.818844	-1.396191	106.227705
5.950000	-1.400314	104.227410	-6.812742	13.719877	-6.812742	13.719877	-1.400358	104.166940
6.000000	-1.405946	102.159610	-6.807413	11.613301	-6.807413	11.613301	-1.405985	102.098678
6.050000	-1.413152	100.082732	-6.797382	9.497511	-6.797382	9.497511	-1.413186	100.021366
6.100000	-1.421905	97.996051	-6.782807	7.371745	-6.782807	7.371745	-1.421934	97.934280
6.150000	-1.432152	95.899080	-6.763936	5.235484	-6.763936	5.235484	-1.432175	95.836933
6.200000	-1.444052	93.789865	-6.740415	3.086710	-6.740415	3.086710	-1.444070	93.727376
6.250000	-1.457384	91.669413	-6.713001	0.926432	-6.713001	0.926432	-1.457396	91.606612
6.300000	-1.472500	89.534121	-6.680854	-1.249063	-6.680854	-1.249063	-1.472505	89.471048
6.350000	-1.489091	87.386025	-6.644972	-3.437704	-6.644972	-3.437704	-1.489090	87.322714
6.400000	-1.507437	85.222075	-6.604788	-5.642644	-6.604788	-5.642644	-1.507429	85.158569
6.450000	-1.527415	83.042929	-6.560797	-7.863222	-6.560797	-7.863222	-1.527400	82.979267
6.500000	-1.549130	80.847161	-6.512934	-10.100922	-6.512934	-10.100922	-1.549106	80.783388
6.550000	-1.572659	78.633646	-6.461220	-12.356916	-6.461220	-12.356916	-1.572627	78.569809
6.600000	-1.597917	76.402976	-6.406066	-14.630605	-6.406066	-14.630605	-1.597876	76.339122
6.650000	-1.625199	74.151862	-6.347046	-16.925392	-6.347046	-16.925392	-1.625148	74.088047
6.700000	-1.654246	71.882894	-6.284947	-19.238611	-6.284947	-19.238611	-1.654185	71.819167
6.750000	-1.685483	69.591437	-6.219147	-21.575050	-6.219147	-21.575050	-1.685412	69.527863
6.800000	-1.718645	67.280351	-6.150420	-23.931760	-6.150420	-23.931760	-1.718563	67.216985
6.850000	-1.754032	64.946427	-6.078463	-26.312053	-6.078463	-26.312053	-1.753937	64.883336
6.900000	-1.791601	62.590241	-6.003616	-28.715326	-6.003616	-28.715326	-1.791494	62.527491
6.950000	-1.831432	60.211103	-5.926011	-31.142285	-5.926011	-31.142285	-1.831311	60.148765
7.000000	-1.873734	57.806964	-5.845591	-33.595028	-5.845591	-33.595028	-1.873599	57.745115
7.050000	-1.918338	55.379993	-5.762886	-36.071302	-5.762886	-36.071302	-1.918188	55.318707
7.100000	-1.965732	52.925202	-5.677485	-38.576221	-5.677485	-38.576221	-1.965565	52.864569
7.150000	-2.015559	50.446907	-5.590150	-41.105315	-5.590150	-41.105315	-2.015375	50.387006
7.200000	-2.068336	47.939970	-5.500517	-43.663829	-5.500517	-43.663829	-2.068134	47.880899
7.250000	-2.123830	45.407438	-5.409146	-46.248593	-5.409146	-46.248593	-2.123608	45.349287
7.300000	-2.182339	42.846673	-5.315991	-48.862260	-5.315991	-48.862260	-2.182096	42.789545
7.350000	-2.243917	40.257709	-5.221282	-51.504737	-5.221282	-51.504737	-2.243653	40.201709
7.400000	-2.308567	37.641173	-5.125293	-54.175319	-5.125293	-54.175319	-2.308279	37.586408
7.450000	-2.376660	34.993850	-5.027987	-56.877200	-5.027987	-56.877200	-2.376347	34.940441
7.500000	-2.447870	32.319860	-4.929884	-59.606111	-4.929884	-59.606111	-2.447530	32.267916
7.550000	-2.522907	29.612554	-4.830760	-62.368676	-4.830760	-62.368676	-2.522538	29.562215
7.600000	-2.601263	26.877957	-4.731206	-65.158701	-4.731206	-65.158701	-2.600864	26.829341
7.650000	-2.683488	24.111139	-4.631166	-67.981007	-4.631166	-67.981007	-2.683056	24.064390
7.700000	-2.769395	21.314809	-4.530985	-70.832738	-4.530985	-70.832738	-2.768929	21.270064
7.750000	-2.859188	18.487602	-4.430819	-73.715082	-4.430819	-73.715082	-2.858685	18.445008
7.800000	-2.953009	15.628786	-4.330858	-76.628574	-4.330858	-76.628574	-2.952467	15.588498
7.850000	-3.050703	12.740659	-4.231371	-79.570745	-4.231371	-79.570745	-3.050120	12.702825
7.900000	-3.152738	9.818983	-4.132487	-82.545476	-4.132487	-82.545476	-3.152110	9.783779
7.950000	-3.258658	6.869149	-4.034481	-85.547290	-4.034481	-85.547290	-3.257984	6.836726
8.000000	-3.369058	3.885211	-3.937534	-88.581559	-3.937534	-88.581559	-3.368335	3.855759
8.050000	-3.483475	0.872632	-3.841841	-91.642764	-3.841841	-91.642764	-3.482700	0.846313
8.100000	-3.602231	-2.172046	-3.747636	-94.733749	-3.747636	-94.733749	-3.601402	-2.195043
8.150000	-3.725167	-5.246891	-3.655084	-97.852302	-3.655084	-97.852302	-3.724281	-5.266385
8.200000	-3.852247	-8.351724	-3.564376	-100.997779	-3.564376	-100.997779	-3.851302	-8.367531
8.250000	-3.983550	-11.488100	-3.475755	-104.171022	-3.475755	-104.171022	-3.982544	-11.500023
8.300000	-4.118753	-14.652312	-3.389254	-107.368220	-3.389254	-107.368220	-4.117683	-14.660174
8.350000	-4.258068	-17.849324	-3.305299	-110.592917	-3.305299	-110.592917	-4.256933	-17.852915
8.400000	-4.401037	-21.073170	-3.223733	-113.839453	-3.223733	-113.839453	-4.399835	-21.072315
8.450000	-4.547721	-24.328744	-3.145030	-117.110961	-3.145030	-117.110961	-4.546451	-24.323238
8.500000	-4.697771	-27.611879	-3.069054	-120.403358	-3.069054	-120.403358	-4.696433	-27.601544
8.550000	-4.851000	-30.924629	-2.996106	-123.717259	-2.996106	-123.717259	-4.849595	-30.909279
8.600000	-5.007125	-34.266275	-2.926254	-127.051175	-2.926254	-127.051175	-5.005652	-34.245733
8.650000	-5.165832	-37.635585	-2.859504	-130.403244	-2.859504	-130.403244	-5.164294	-37.609687
8.700000	-5.326713	-41.035239	-2.796208	-133.774077	-2.796208	-133.774077	-5.325112	-41.003816
8.750000	-5.489528	-44.460791	-2.736001	-137.159911	-2.736001	-137.159911	-5.487868	-44.423710
8.800000	-5.653515	-47.918327	-2.679585	-140.562939	-2.679585	-140.562939	-5.651801	-47.875441
8.850000	-5.818591	-51.401847	-2.626359	-143.978838	-2.626359	-143.978838	-5.816830	-51.353055
8.900000	-5.983951	-54.915167	-2.576765	-147.408311	-2.576765	-147.408311	-5.982150	-54.860372
8.950000	-6.149131	-58.457358	-2.530706	-150.849734	-2.530706	-150.849734	-6.147300	-58.396492
9.000000	-6.313545	-62.028581	-2.488190	-154.302018	-2.488190	-154.302018	-6.311695	-61.961604
9.050000	-6.476565	-65.629094	-2.449218	-157.764152	-2.449218	-157.764152	-6.474709	-65.555999
9.100000	-6.637387	-69.259955	-2.413872	-161.235380	-2.413872	-161.235380	-6.635539	-69.180769
9.150000	-6.795388	-72.920955	-2.382077	-164.714614	-2.382077	-164.714614	-6.793564	-72.835746
9.200000	-6.949900	-76.612122	-2.353778	-168.200941	-2.353778	-168.200941	-6.948119	-76.521000
9.250000	-7.100196	-80.333703	-2.328944	-171.693597	-2.328944	-171.693597	-7.098477	-80.236825
9.300000	-7.245537	-84.085885	-2.307538	-175.191894	-2.307538	-175.191894	-7.243900	-83.983456
9.350000	-7.385179	-87.868769	-2.289520	-178.695220	-2.289520	-178.695220	-7.383648	-87.761049
9.400000	-7.518228	-91.682867	-2.274902	177.796883	-2.274902	177.796883	-7.516825	-91.570175
9.450000	-7.643935	-95.527996	-2.263640	174.284878	-2.263640	174.284878	-7.642685	-95.410714
9.500000	-7.761751	-99.403267	-2.255633	170.769193	-2.255633	170.769193	-7.760678	-99.281826
9.550000	-7.871013	-103.308103	-2.250841	167.250097	-2.250841	167.250097	-7.870141	-103.182994
9.600000	-7.971103	-107.241688	-2.249230	163.727778	-2.249230	163.727778	-7.970456	-107.113456
9.650000	-8.061462	-111.202937	-2.250770	160.202341	-2.250770	160.202341	-8.061061	-111.072184
9.700000	-8.141496	-115.190693	-2.255466	156.673794	-2.255466	156.673794	-8.141364	-115.058077
9.750000	-8.210587	-119.203631	-2.263359	153.142043	-2.263359	153.142043	-8.210741	-119.069868
9.800000	-8.268695	-123.239068	-2.274371	149.607063	-2.274371	149.607063	-8.269152	-123.104896
9.850000	-8.315586	-127.294693	-2.288512	146.068700	-2.288512	146.068700	-8.316359	-127.160880
9.900000	-8.351126	-131.367898	-2.305811	142.526755	-2.305811	142.526755	-8.352225	-131.235234
9.950000	-8.375285	-135.455794	-2.326311	138.980999	-2.326311	138.980999	-8.376717	-135.325083
10.000000	-8.388134	-139.555239	-2.350069	135.431184	-2.350069	135.431184	-8.389902	-139.427285
