! freq	dB(S11)	phase(S11)	dB(S12)	phase(S12)	
!     	dB(S21)	phase(S21)	dB(S22)	phase(S22)	
!S-par simulation data
#  GHz  S  DB  R 50
0.000000	-76.812081	0.000000	-0.001254	0.000000	-0.001254	0.000000	-76.812081	0.000000
0.050000	-40.513732	-93.715589	-0.009998	-5.927496	-0.009998	-5.927496	-40.525309	-93.671331
0.100000	-34.723981	-100.688376	-0.021761	-11.780222	-0.021761	-11.780222	-34.722699	-100.285081
0.150000	-31.376044	-107.304147	-0.031428	-17.609538	-0.031428	-17.609538	-31.373636	-106.639590
0.200000	-29.058716	-113.678781	-0.040579	-23.430855	-0.040579	-23.430855	-29.056444	-112.775758
0.250000	-27.329109	-119.914895	-0.049816	-29.245292	-0.049816	-29.245292	-27.327483	-118.764540
0.300000	-25.987761	-126.072411	-0.059152	-35.052938	-0.059152	-35.052938	-25.986821	-124.653789
0.350000	-24.931485	-132.184083	-0.068425	-40.854342	-0.068425	-40.854342	-24.930982	-130.470081
0.400000	-24.095568	-138.271225	-0.077465	-46.650800	-0.077465	-46.650800	-24.095235	-136.230714
0.450000	-23.439250	-144.347547	-0.086140	-52.443698	-0.086140	-52.443698	-23.438957	-141.944275
0.500000	-22.936348	-150.423575	-0.094351	-58.234378	-0.094351	-58.234378	-22.936135	-147.614108
0.550000	-22.572542	-156.509300	-0.102007	-64.024136	-0.102007	-64.024136	-22.572600	-153.239069
0.600000	-22.337408	-162.615253	-0.109044	-69.814303	-0.109044	-69.814303	-22.338015	-158.816000
0.650000	-22.221355	-168.752110	-0.115435	-75.606116	-0.115435	-75.606116	-22.222804	-164.340800
0.700000	-22.223403	-174.933609	-0.121149	-81.400828	-0.121149	-81.400828	-22.225958	-169.804370
0.750000	-22.349281	178.820446	-0.126156	-87.199868	-0.126156	-87.199868	-22.353139	-175.190867
0.800000	-22.598485	172.490304	-0.130512	-93.004284	-0.130512	-93.004284	-22.603740	179.515218
0.850000	-22.980218	166.046330	-0.134270	-98.815226	-0.134270	-98.815226	-22.986860	174.340839
0.900000	-23.515495	159.435759	-0.137494	-104.634216	-0.137494	-104.634216	-23.523375	169.337464
0.950000	-24.220643	152.597980	-0.140332	-110.461902	-0.140332	-110.461902	-24.229454	164.565988
1.000000	-25.127412	145.431046	-0.142937	-116.299008	-0.142937	-116.299008	-25.136577	160.131817
1.050000	-26.289644	137.734341	-0.145489	-122.146462	-0.145489	-122.146462	-26.297954	156.245025
1.100000	-27.783009	129.156093	-0.148195	-128.004455	-0.148195	-128.004455	-27.787733	153.276582
1.150000	-29.729875	118.994938	-0.151255	-133.872765	-0.151255	-133.872765	-29.723959	151.964701
1.200000	-32.334408	105.422447	-0.154877	-139.751291	-0.154877	-139.751291	-32.295419	154.211773
1.250000	-35.779417	82.741765	-0.159266	-145.639639	-0.159266	-145.639639	-35.621727	165.725526
1.300000	-38.770205	38.674480	-0.164547	-151.536589	-0.164547	-151.536589	-38.316712	-162.623206
1.350000	-36.884754	-12.880755	-0.170830	-157.441141	-0.170830	-157.441141	-36.476247	-125.156125
1.400000	-32.991698	-40.304722	-0.178235	-163.352440	-0.178235	-163.352440	-32.766277	-109.835962
1.450000	-29.922758	-55.912374	-0.186710	-169.268860	-0.186710	-169.268860	-29.779577	-105.865042
1.500000	-27.588379	-66.987295	-0.196202	-175.189229	-0.196202	-175.189229	-27.483868	-106.426956
1.550000	-25.762945	-75.985345	-0.206641	178.887429	-0.206641	178.887429	-25.678994	-109.106737
1.600000	-24.299495	-83.951486	-0.217834	172.962100	-0.217834	172.962100	-24.227630	-112.847755
1.650000	-23.106061	-91.323746	-0.229567	167.035403	-0.229567	167.035403	-23.041775	-117.200556
1.700000	-22.126822	-98.312002	-0.241608	161.107562	-0.241608	161.107562	-22.067436	-121.947816
1.750000	-21.324265	-105.044946	-0.253681	155.178427	-0.253681	155.178427	-21.268058	-126.955781
1.800000	-20.669723	-111.606660	-0.265512	149.247484	-0.265512	149.247484	-20.615518	-132.137435
1.850000	-20.145973	-118.044862	-0.276835	143.313756	-0.276835	143.313756	-20.092860	-137.443903
1.900000	-19.744346	-124.391935	-0.287362	137.375652	-0.287362	137.375652	-19.691525	-142.842839
1.950000	-19.452069	-130.678482	-0.296907	131.431591	-0.296907	131.431591	-19.398812	-148.304448
2.000000	-19.264135	-136.924665	-0.305298	125.479538	-0.305298	125.479538	-19.209681	-153.809939
2.050000	-19.183541	-143.147614	-0.312343	119.516566	-0.312343	119.516566	-19.126974	-159.344094
2.100000	-19.206657	-149.365582	-0.318028	113.540486	-0.318028	113.540486	-19.146911	-164.889902
2.150000	-19.336024	-155.595452	-0.322364	107.548768	-0.322364	107.548768	-19.271759	-170.431119
2.200000	-19.581844	-161.857546	-0.325373	101.538065	-0.325373	101.538065	-19.511225	-175.946905
2.250000	-19.953737	-168.176030	-0.327204	95.505765	-0.327204	95.505765	-19.874251	178.590322
2.300000	-20.464550	-174.580492	-0.328084	89.449869	-0.328084	89.449869	-20.372649	173.217468
2.350000	-21.139217	178.882698	-0.328256	83.367661	-0.328256	83.367661	-21.029504	167.994892
2.400000	-22.015297	172.135897	-0.328031	77.256376	-0.328031	77.256376	-21.878995	163.027252
2.450000	-23.140003	165.066197	-0.327780	71.115509	-0.327780	71.115509	-22.962343	158.470763
2.500000	-24.597412	157.454822	-0.327872	64.943865	-0.327872	64.943865	-24.350750	154.622082
2.550000	-26.540246	148.769837	-0.328737	58.739241	-0.328737	58.739241	-26.164226	152.175227
2.600000	-29.241115	137.711995	-0.330766	52.502198	-0.330766	52.502198	-28.581628	152.681406
2.650000	-33.251498	119.648240	-0.334339	46.232869	-0.334339	46.232869	-31.811329	160.614816
2.700000	-38.408285	73.263927	-0.339802	39.931798	-0.339802	39.931798	-35.030475	-172.350279
2.750000	-35.857980	3.674750	-0.347448	33.599878	-0.347448	33.599878	-33.892982	-132.429561
2.800000	-30.566113	-24.588239	-0.357510	27.238255	-0.357510	27.238255	-30.026809	-113.981349
2.850000	-26.916173	-38.162269	-0.370142	20.848218	-0.370142	20.848218	-26.764528	-109.951645
2.900000	-24.269824	-47.625557	-0.385420	14.431060	-0.385420	14.431060	-24.253009	-111.377861
2.950000	-22.223629	-55.416609	-0.403359	7.987696	-0.403359	7.987696	-22.267830	-115.235979
3.000000	-20.573426	-62.350851	-0.423854	1.519115	-0.423854	1.519115	-20.652150	-120.384167
3.050000	-19.204828	-68.758826	-0.446730	-4.974173	-0.446730	-4.974173	-19.307303	-126.334531
3.100000	-18.047784	-74.794663	-0.471765	-11.492388	-0.471765	-11.492388	-18.169540	-132.852519
3.150000	-17.056011	-80.537186	-0.498703	-18.036481	-0.498703	-18.036481	-17.195494	-139.815794
3.200000	-16.196885	-86.027712	-0.527272	-24.608238	-0.527272	-24.608238	-16.354040	-147.160036
3.250000	-15.446026	-91.287407	-0.557219	-31.210356	-0.557219	-31.210356	-15.621635	-154.853706
3.300000	-14.784187	-96.326244	-0.588334	-37.846487	-0.588334	-37.846487	-14.979498	-162.885045
3.350000	-14.195451	-101.147213	-0.620495	-44.521448	-0.620495	-44.521448	-14.411954	-171.256229
3.400000	-13.665757	-105.751000	-0.653699	-51.241102	-0.653699	-51.241102	-13.904961	-179.976877
3.450000	-13.181910	-110.142117	-0.688087	-58.011455	-0.688087	-58.011455	-13.445047	170.945394
3.500000	-12.731660	-114.326537	-0.724004	-64.839568	-0.724004	-64.839568	-13.019458	161.500673
3.550000	-12.303181	-118.316595	-0.762019	-71.732983	-0.762019	-71.732983	-12.615562	151.684073
3.600000	-11.885050	-122.133730	-0.802958	-78.699476	-0.802958	-78.699476	-12.220813	141.499979
3.650000	-11.466555	-125.810994	-0.847923	-85.746559	-0.847923	-85.746559	-11.823109	130.966736
3.700000	-11.037835	-129.393814	-0.898357	-92.881912	-0.898357	-92.881912	-11.411009	120.117206
3.750000	-10.590491	-132.941419	-0.956068	-100.112691	-0.956068	-100.112691	-10.974533	109.002642
3.800000	-10.119888	-136.523133	-1.022932	-107.441782	-1.022932	-107.441782	-10.507917	97.697368
3.850000	-9.621622	-140.217985	-1.101659	-114.875711	-1.101659	-114.875711	-10.005800	86.279499
3.900000	-9.098563	-144.095431	-1.194338	-122.410796	-1.194338	-122.410796	-9.471368	74.839920
3.950000	-8.553218	-148.226449	-1.303961	-130.046863	-1.303961	-130.046863	-8.907629	63.462269
4.000000	-7.991110	-152.672398	-1.433689	-137.779475	-1.433689	-137.779475	-8.321198	52.227131
4.050000	-7.421418	-157.464798	-1.585921	-145.596994	-1.585921	-145.596994	-7.722984	41.194955
4.100000	-6.852762	-162.623266	-1.763265	-153.486542	-1.763265	-153.486542	-7.123175	30.413436
4.150000	-6.293657	-168.150448	-1.968062	-161.431856	-1.968062	-161.431856	-6.531714	19.917081
4.200000	-5.751679	-174.043894	-2.202980	-169.414013	-2.202980	-169.414013	-5.957265	9.739124
4.250000	-5.234232	179.733458	-2.468674	-177.409429	-2.468674	-177.409429	-5.408292	-0.115248
4.300000	-4.746399	173.215644	-2.765952	174.605101	-2.765952	174.605101	-4.890501	-9.638004
4.350000	-4.291752	166.441998	-3.095030	166.653211	-3.095030	166.653211	-4.407861	-18.825300
4.400000	-3.872851	159.450548	-3.455859	158.759910	-3.455859	158.759910	-3.963163	-27.668513
4.450000	-3.490428	152.288691	-3.847050	150.946833	-3.847050	150.946833	-3.557268	-36.174763
4.500000	-3.144011	144.998776	-4.267025	143.232994	-4.267025	143.232994	-3.189718	-44.350468
4.550000	-2.832398	137.618958	-4.713983	135.635325	-4.713983	135.635325	-2.859266	-52.201385
4.600000	-2.554125	130.183867	-5.185787	128.170271	-5.185787	128.170271	-2.564389	-59.730259
4.650000	-2.306910	122.726381	-5.679972	120.849706	-5.679972	120.849706	-2.302713	-66.946904
4.700000	-2.087872	115.274929	-6.194249	113.680202	-6.194249	113.680202	-2.071228	-73.866997
4.750000	-1.894408	107.853792	-6.726348	106.667989	-6.726348	106.667989	-1.867212	-80.502504
4.800000	-1.724078	100.484782	-7.273880	99.818518	-7.273880	99.818518	-1.688112	-86.864279
4.850000	-1.574602	93.188208	-7.834238	93.136766	-7.834238	93.136766	-1.531546	-92.962431
4.900000	-1.443208	85.978765	-8.405866	86.619813	-8.405866	86.619813	-1.394585	-98.817106
4.950000	-1.327760	78.870227	-8.986919	80.267337	-8.986919	80.267337	-1.274968	-104.442191
5.000000	-1.226320	71.874490	-9.575672	74.078088	-9.575672	74.078088	-1.170632	-109.851428
5.050000	-1.137518	65.006814	-10.169133	68.056107	-10.169133	68.056107	-1.080125	-115.051100
5.100000	-1.059149	58.268242	-10.767927	62.189039	-10.767927	62.189039	-1.001053	-120.066326
5.150000	-0.990313	51.672556	-11.368855	56.481509	-11.368855	56.481509	-0.932442	-124.900571
5.200000	-0.929532	45.221376	-11.971830	50.925203	-11.971830	50.925203	-0.872668	-129.571349
5.250000	-0.875865	38.920993	-12.575195	45.518222	-12.575195	45.518222	-0.820687	-134.087856
5.300000	-0.828423	32.775774	-13.177627	40.257325	-13.177627	40.257325	-0.775500	-138.460109
5.350000	-0.786325	26.785088	-13.778926	35.135719	-13.778926	35.135719	-0.736116	-142.700537
5.400000	-0.749145	20.959754	-14.375565	30.157160	-14.375565	30.157160	-0.702026	-146.811355
5.450000	-0.715982	15.288421	-14.969887	25.307329	-14.969887	25.307329	-0.672215	-150.810078
5.500000	-0.686282	9.766666	-15.562338	20.578948	-15.562338	20.578948	-0.646046	-154.706824
5.550000	-0.659791	4.400815	-16.150153	15.973862	-16.150153	15.973862	-0.623201	-158.503694
5.600000	-0.636318	-0.800034	-16.729406	11.496066	-16.729406	11.496066	-0.603423	-162.201204
5.650000	-0.615208	-5.857234	-17.305021	7.126744	-17.305021	7.126744	-0.585991	-165.816986
5.700000	-0.596215	-10.773543	-17.876568	2.862074	-17.876568	2.862074	-0.570612	-169.356282
5.750000	-0.579336	-15.534827	-18.438344	-1.289238	-18.438344	-1.289238	-0.557228	-172.815403
5.800000	-0.564209	-20.155705	-18.993130	-5.339233	-18.993130	-5.339233	-0.545445	-176.205135
5.850000	-0.550580	-24.646850	-19.542732	-9.296546	-19.542732	-9.296546	-0.534986	-179.533210
5.900000	-0.538338	-29.008931	-20.085870	-13.162355	-20.085870	-13.162355	-0.525713	177.197932
5.950000	-0.527493	-33.230948	-20.617286	-16.929470	-20.617286	-16.929470	-0.517589	173.991073
6.000000	-0.517740	-37.336087	-21.142780	-20.614544	-21.142780	-20.614544	-0.510322	170.834273
6.050000	-0.508982	-41.328348	-21.662155	-24.220498	-21.662155	-24.220498	-0.503810	167.724558
6.100000	-0.501220	-45.200994	-22.171514	-27.742570	-22.171514	-27.742570	-0.498018	164.663428
6.150000	-0.494342	-48.961613	-22.671674	-31.185879	-22.671674	-31.185879	-0.492835	161.646688
6.200000	-0.488213	-52.622413	-23.165289	-34.558693	-23.165289	-34.558693	-0.488144	158.668662
6.250000	-0.482776	-56.187222	-23.652226	-37.863315	-23.652226	-37.863315	-0.483887	155.727206
6.300000	-0.478084	-59.643889	-24.126414	-41.090428	-24.126414	-41.090428	-0.480070	152.826208
6.350000	-0.473969	-63.013053	-24.593767	-44.254134	-24.593767	-44.254134	-0.476576	149.957427
6.400000	-0.470391	-66.298235	-25.054172	-47.356293	-25.054172	-47.356293	-0.473365	147.119204
6.450000	-0.467347	-69.496925	-25.505184	-50.394181	-25.505184	-50.394181	-0.470420	144.312114
6.500000	-0.464807	-72.611145	-25.945987	-53.368263	-25.945987	-53.368263	-0.467710	141.535152
6.550000	-0.462692	-75.652227	-26.379602	-56.286111	-26.379602	-56.286111	-0.465182	138.784096
6.600000	-0.461086	-78.602694	-26.797403	-59.132686	-26.797403	-59.132686	-0.462855	136.064972
6.650000	-0.459704	-81.512354	-27.218590	-61.946518	-27.218590	-61.946518	-0.460609	133.360198
6.700000	-0.458785	-84.336259	-27.622913	-64.690545	-27.622913	-64.690545	-0.458522	130.685554
6.750000	-0.458186	-87.098826	-28.019497	-67.382785	-28.019497	-67.382785	-0.456527	128.032509
6.800000	-0.457809	-89.818888	-28.415240	-70.038946	-28.415240	-70.038946	-0.454595	125.394444
6.850000	-0.457866	-92.453417	-28.789603	-72.620014	-28.789603	-72.620014	-0.452766	122.786709
6.900000	-0.458131	-95.045541	-29.160767	-75.162299	-29.160767	-75.162299	-0.450975	120.194192
6.950000	-0.458607	-97.595261	-29.527571	-77.665803	-29.527571	-77.665803	-0.449223	117.616891
7.000000	-0.459439	-100.071078	-29.873802	-80.098833	-29.873802	-80.098833	-0.447518	115.066561
7.050000	-0.460424	-102.514492	-30.218083	-82.499848	-30.218083	-82.499848	-0.445826	112.528277
7.100000	-0.461626	-104.912112	-30.552696	-84.855335	-30.552696	-84.855335	-0.444152	110.007073
7.150000	-0.463085	-107.254399	-30.871549	-87.153537	-30.871549	-87.153537	-0.442486	107.507062
7.200000	-0.464676	-109.568091	-31.187126	-89.421504	-31.187126	-89.421504	-0.440821	105.018196
7.250000	-0.466485	-111.834308	-31.488328	-91.638421	-31.488328	-91.638421	-0.439155	102.548093
7.300000	-0.468475	-114.060079	-31.777624	-93.810344	-31.777624	-93.810344	-0.437480	100.094564
7.350000	-0.470580	-116.260631	-32.062305	-95.953992	-32.062305	-95.953992	-0.435799	97.651486
7.400000	-0.472898	-118.413345	-32.328360	-98.042886	-32.328360	-98.042886	-0.434103	95.228827
7.450000	-0.475343	-120.537485	-32.585582	-100.098379	-32.585582	-100.098379	-0.432396	92.818930
7.500000	-0.477886	-122.639400	-32.836854	-102.127893	-32.836854	-102.127893	-0.430682	90.418958
7.550000	-0.480636	-124.694129	-33.065590	-104.101604	-33.065590	-104.101604	-0.428950	88.041135
7.600000	-0.483471	-126.729690	-33.287980	-106.052651	-33.287980	-106.052651	-0.427213	85.672808
7.650000	-0.486413	-128.740607	-33.499696	-107.974560	-33.499696	-107.974560	-0.425469	83.316690
7.700000	-0.489509	-130.715948	-33.692093	-109.855030	-33.692093	-109.855030	-0.423722	80.979250
7.750000	-0.492679	-132.674425	-33.876809	-111.716309	-33.876809	-111.716309	-0.421977	78.651060
7.800000	-0.495961	-134.606982	-34.046573	-113.548390	-34.046573	-113.548390	-0.420236	76.337349
7.850000	-0.499356	-136.513341	-34.199758	-115.352599	-34.199758	-115.352599	-0.418509	74.039264
7.900000	-0.502816	-138.404908	-34.344089	-117.141611	-34.344089	-117.141611	-0.416794	71.750263
7.950000	-0.506389	-140.270214	-34.469569	-118.905031	-34.469569	-118.905031	-0.415106	69.478053
8.000000	-0.510043	-142.116855	-34.580947	-120.652482	-34.580947	-120.652482	-0.413450	67.218676
8.050000	-0.513753	-143.950577	-34.682537	-122.389139	-34.682537	-122.389139	-0.411817	64.968277
8.100000	-0.517575	-145.758481	-34.761675	-124.107585	-34.761675	-124.107585	-0.410246	62.737038
8.150000	-0.521453	-147.553718	-34.829132	-125.819410	-34.829132	-125.819410	-0.408717	60.515979
8.200000	-0.525387	-149.336287	-34.884630	-127.524614	-34.884630	-127.524614	-0.407230	58.305101
8.250000	-0.529416	-151.097069	-34.917315	-129.223131	-34.917315	-129.223131	-0.405838	56.113251
8.300000	-0.533488	-152.848434	-34.939340	-130.920744	-34.939340	-130.920744	-0.404496	53.930258
8.350000	-0.537620	-154.586526	-34.946012	-132.617592	-34.946012	-132.617592	-0.403228	51.759910
8.400000	-0.541823	-156.308922	-34.932581	-134.317982	-34.932581	-134.317982	-0.402067	49.605943
8.450000	-0.546065	-158.023330	-34.908278	-136.021567	-34.908278	-136.021567	-0.400969	47.460773
8.500000	-0.550368	-159.724640	-34.865327	-137.732288	-34.865327	-137.732288	-0.399981	45.330650
8.550000	-0.554725	-161.415178	-34.805068	-139.452743	-34.805068	-139.452743	-0.399103	43.214232
8.600000	-0.559116	-163.099082	-34.734039	-141.179904	-34.734039	-141.179904	-0.398296	41.106511
8.650000	-0.563571	-164.770814	-34.640798	-142.923033	-34.640798	-142.923033	-0.397638	39.016072
8.700000	-0.568067	-166.435697	-34.533291	-144.678405	-34.533291	-144.678405	-0.397080	36.936603
8.750000	-0.572594	-168.095251	-34.415397	-146.443299	-34.415397	-146.443299	-0.396601	34.865667
8.800000	-0.577202	-169.742836	-34.265959	-148.237381	-34.265959	-148.237381	-0.396339	32.817042
8.850000	-0.581812	-171.390421	-34.119050	-150.031462	-34.119050	-150.031462	-0.396077	30.768417
8.900000	-0.586508	-173.028075	-33.937550	-151.859669	-33.937550	-151.859669	-0.396049	28.742462
8.950000	-0.591214	-174.664826	-33.756475	-153.690978	-33.756475	-153.690978	-0.396043	26.718567
9.000000	-0.596005	-176.295229	-33.542282	-155.556194	-33.542282	-155.556194	-0.396256	24.714319
9.050000	-0.600815	-177.924361	-33.326074	-157.428193	-33.326074	-157.428193	-0.396513	22.714001
9.100000	-0.605716	-179.550357	-33.078262	-159.333047	-33.078262	-159.333047	-0.396976	20.730167
9.150000	-0.610648	178.824693	-32.825410	-161.248853	-32.825410	-161.248853	-0.397508	18.751828
9.200000	-0.615682	177.199994	-32.542646	-163.196160	-32.542646	-163.196160	-0.398238	16.786695
9.250000	-0.620769	175.575421	-32.250899	-165.159217	-32.250899	-165.159217	-0.399068	14.828163
9.300000	-0.625975	173.948502	-31.931302	-167.152574	-31.931302	-167.152574	-0.400099	12.879473
9.350000	-0.631269	172.319908	-31.597407	-169.167574	-31.597407	-169.167574	-0.401275	10.937813
9.400000	-0.636710	170.686640	-31.238376	-171.212166	-31.238376	-171.212166	-0.402673	9.002613
9.450000	-0.642298	169.048697	-30.857712	-173.286352	-30.857712	-173.286352	-0.404294	7.073874
9.500000	-0.648070	167.404030	-30.455700	-175.390105	-30.455700	-175.390105	-0.406180	5.148307
9.550000	-0.654098	165.749947	-30.021720	-177.535252	-30.021720	-177.535252	-0.408438	3.227182
9.600000	-0.660355	164.087433	-29.571939	-179.710560	-29.571939	-179.710560	-0.411028	1.306214
9.650000	-0.667067	162.408055	-29.075315	178.053810	-29.075315	178.053810	-0.414281	-0.614438
9.700000	-0.674058	160.719079	-28.571337	175.787318	-28.571337	175.787318	-0.417946	-2.537373
9.750000	-0.681880	159.001310	-27.998549	173.428246	-27.998549	173.428246	-0.422848	-4.467157
9.800000	-0.690021	157.273811	-27.431788	171.039048	-27.431788	171.039048	-0.428225	-6.400607
9.850000	-0.699737	155.497664	-26.762713	168.499226	-26.762713	168.499226	-0.435967	-8.352387
9.900000	-0.709748	153.713916	-26.121826	165.935621	-26.121826	165.935621	-0.444131	-10.307410
9.950000	-0.722911	151.846569	-25.325376	163.110392	-25.325376	163.110392	-0.456875	-12.298114
10.000000	-0.736093	149.979222	-24.595862	160.285164	-24.595862	160.285164	-0.469637	-14.288817
