! freq	dB(S11)	phase(S11)	dB(S12)	phase(S12)	
!     	dB(S21)	phase(S21)	dB(S22)	phase(S22)	
!S-par simulation data
#  GHz  S  DB  R 50
0.000000	-77.612081	0.000000	-0.001144	0.000000	-0.001144	0.000000	-77.612081	0.000000
0.050000	-41.237265	-94.528324	-0.006683	-5.456551	-0.006683	-5.456551	-41.237261	-94.528416
0.100000	-35.276813	-100.366068	-0.017577	-10.865609	-0.017577	-10.865609	-35.276809	-100.366253
0.150000	-31.851639	-105.906722	-0.028042	-16.241399	-0.028042	-16.241399	-31.851635	-105.907001
0.200000	-29.489114	-111.363293	-0.037257	-21.603250	-0.037257	-21.603250	-29.489110	-111.363670
0.250000	-27.729010	-116.781660	-0.045802	-26.959697	-0.045802	-26.959697	-27.729006	-116.782138
0.300000	-26.368162	-122.187327	-0.054140	-32.313116	-0.054140	-32.313116	-26.368158	-122.187912
0.350000	-25.302511	-127.619475	-0.062461	-37.663809	-0.062461	-37.663809	-25.302508	-127.620180
0.400000	-24.461323	-133.133959	-0.070765	-43.011802	-0.070765	-43.011802	-24.461320	-133.134799
0.450000	-23.790299	-138.742146	-0.078957	-48.357211	-0.078957	-48.357211	-23.790295	-138.743135
0.500000	-23.257114	-144.355768	-0.086887	-53.700356	-0.086887	-53.700356	-23.257107	-144.356913
0.550000	-22.846007	-149.896492	-0.094426	-59.042011	-0.094426	-59.042011	-22.845998	-149.897801
0.600000	-22.558329	-155.359474	-0.101429	-64.383039	-0.101429	-64.383039	-22.558320	-155.360968
0.650000	-22.392104	-160.772368	-0.107787	-69.724589	-0.107787	-69.724589	-22.392094	-160.774074
0.700000	-22.344326	-166.158376	-0.113430	-75.067958	-0.113430	-75.067958	-22.344315	-166.160328
0.750000	-22.415068	-171.530525	-0.118326	-80.414538	-0.118326	-80.414538	-22.415057	-171.532765
0.800000	-22.607894	-176.895764	-0.122487	-85.765751	-0.122487	-85.765751	-22.607882	-176.898347
0.850000	-22.931238	177.742156	-0.125964	-91.123032	-0.125964	-91.123032	-22.931225	177.739159
0.900000	-23.398999	172.381196	-0.128853	-96.487752	-0.128853	-96.487752	-23.398986	172.377685
0.950000	-24.030647	167.020495	-0.131295	-101.861018	-0.131295	-101.861018	-24.030633	167.016333
1.000000	-24.857820	161.660340	-0.133454	-107.243805	-0.133454	-107.243805	-24.857805	161.655326
1.050000	-25.929956	156.302619	-0.135520	-112.636859	-0.135520	-112.636859	-25.929940	156.296441
1.100000	-27.328120	150.952178	-0.137697	-118.040671	-0.137697	-118.040671	-27.328103	150.944317
1.150000	-29.196516	145.620600	-0.140199	-123.455455	-0.140199	-123.455455	-29.196499	145.610092
1.200000	-31.828013	140.338909	-0.143234	-128.881143	-0.143234	-128.881143	-31.827999	140.323647
1.250000	-35.975487	135.218889	-0.147002	-134.317392	-0.147002	-134.317392	-35.975492	135.192680
1.300000	-45.052729	131.312767	-0.151698	-139.763732	-0.151698	-139.763732	-45.053082	131.231029
1.350000	-45.680164	-59.277157	-0.157458	-145.219167	-0.157458	-145.219167	-45.680939	-59.170918
1.400000	-35.733363	-62.640243	-0.164394	-150.682670	-0.164394	-150.682670	-35.733452	-62.609549
1.450000	-31.135820	-67.761713	-0.172577	-156.153079	-0.172577	-156.153079	-31.135854	-67.742860
1.500000	-28.113912	-73.076515	-0.182029	-161.629151	-0.182029	-161.629151	-28.113929	-73.062594
1.550000	-25.872459	-78.455494	-0.192723	-167.109629	-0.192723	-167.109629	-25.872466	-78.444267
1.600000	-24.106143	-83.863753	-0.204583	-172.593305	-0.204583	-172.593305	-24.106146	-83.854214
1.650000	-22.665057	-89.287343	-0.217483	-178.079084	-0.217483	-178.079084	-22.665056	-89.278950
1.700000	-21.464966	-94.719306	-0.231260	176.433946	-0.231260	176.433946	-21.464963	-94.711732
1.750000	-20.453360	-100.155524	-0.245690	170.946476	-0.245690	170.946476	-20.453355	-100.148557
1.800000	-19.595438	-105.593499	-0.260523	165.458886	-0.260523	165.458886	-19.595432	-105.586991
1.850000	-18.867375	-111.031702	-0.275484	159.971217	-0.275484	159.971217	-18.867367	-111.025546
1.900000	-18.252274	-116.469283	-0.290281	154.483140	-0.290281	154.483140	-18.252265	-116.463397
1.950000	-17.737962	-121.905937	-0.304617	148.993932	-0.304617	148.993932	-17.737952	-121.900255
2.000000	-17.315665	-127.341825	-0.318192	143.502468	-0.318192	143.502468	-17.315654	-127.336291
2.050000	-16.979193	-132.777506	-0.330725	138.007210	-0.330725	138.007210	-16.979180	-132.772073
2.100000	-16.724798	-138.213878	-0.341944	132.506183	-0.341944	132.506183	-16.724784	-138.208503
2.150000	-16.550582	-143.652117	-0.351611	126.996977	-0.351611	126.996977	-16.550566	-143.646758
2.200000	-16.455217	-149.093495	-0.359556	121.476957	-0.359556	121.476957	-16.455200	-149.088111
2.250000	-16.439072	-154.539234	-0.365661	115.943257	-0.365661	115.943257	-16.439053	-154.533783
2.300000	-16.506122	-159.990453	-0.369828	110.392397	-0.369828	110.392397	-16.506101	-159.984889
2.350000	-16.660598	-165.447665	-0.372068	104.821016	-0.372068	104.821016	-16.660574	-165.441933
2.400000	-16.911111	-170.910554	-0.372428	99.225133	-0.372428	99.225133	-16.911084	-170.904591
2.450000	-17.267047	-176.377060	-0.371088	93.601376	-0.371088	93.601376	-17.267016	-176.370786
2.500000	-17.743592	178.157372	-0.368278	87.946055	-0.368278	87.946055	-17.743556	178.164059
2.550000	-18.364457	172.702051	-0.364299	82.254886	-0.364299	82.254886	-18.364413	172.709291
2.600000	-19.159713	167.273898	-0.359579	76.524966	-0.359579	76.524966	-19.159658	167.281891
2.650000	-20.177553	161.904408	-0.354601	70.753092	-0.354601	70.753092	-20.177482	161.913453
2.700000	-21.497647	156.658220	-0.349940	64.935684	-0.349940	64.935684	-21.497548	156.668814
2.750000	-23.253126	151.670280	-0.346238	59.070846	-0.346238	59.070846	-23.252976	151.683315
2.800000	-25.709198	147.281726	-0.344191	53.156761	-0.344191	53.156761	-25.708928	147.299071
2.850000	-29.514853	144.712941	-0.344588	47.191435	-0.344588	47.191435	-29.514193	144.739834
2.900000	-37.014306	152.598096	-0.348206	41.174619	-0.348206	41.174619	-37.010464	152.658678
2.950000	-39.952175	-90.442774	-0.355838	35.106561	-0.355838	35.106561	-39.944522	-90.518033
3.000000	-30.018176	-72.666563	-0.368344	28.987469	-0.368344	28.987469	-30.017399	-72.695455
3.050000	-25.157889	-74.516885	-0.386504	22.819054	-0.386504	22.819054	-25.157630	-74.533639
3.100000	-21.932117	-78.937676	-0.411027	16.603786	-0.411027	16.603786	-21.931991	-78.949312
3.150000	-19.506135	-84.218623	-0.442662	10.344062	-0.442662	10.344062	-19.506060	-84.227487
3.200000	-17.560047	-89.901840	-0.482031	4.043242	-0.482031	4.043242	-17.559998	-89.908981
3.250000	-15.937427	-95.812996	-0.529592	-2.294606	-0.529592	-2.294606	-15.937392	-95.818969
3.300000	-14.549379	-101.872486	-0.585822	-8.665718	-0.585822	-8.665718	-14.549353	-101.877624
3.350000	-13.340836	-108.035577	-0.651049	-15.065946	-0.651049	-15.065946	-13.340815	-108.040095
3.400000	-12.275048	-114.275170	-0.725541	-21.491274	-0.725541	-21.491274	-12.275031	-114.279215
3.450000	-11.326134	-120.572489	-0.809359	-27.937552	-0.809359	-27.937552	-11.326119	-120.576165
3.500000	-10.474856	-126.914352	-0.902451	-34.400992	-0.902451	-34.400992	-10.474843	-126.917734
3.550000	-9.706722	-133.292218	-1.004987	-40.878728	-1.004987	-40.878728	-9.706710	-133.295366
3.600000	-9.010239	-139.698663	-1.116871	-47.367890	-1.116871	-47.367890	-9.010229	-139.701622
3.650000	-8.376036	-146.128095	-1.237969	-53.866158	-1.237969	-53.866158	-8.376027	-146.130902
3.700000	-7.796404	-152.576460	-1.368197	-60.371805	-1.368197	-60.371805	-7.796395	-152.579144
3.750000	-7.264863	-159.040759	-1.507488	-66.883583	-1.507488	-66.883583	-7.264856	-159.043344
3.800000	-6.775979	-165.518916	-1.655858	-73.400705	-1.655858	-73.400705	-6.775971	-165.521422
3.850000	-6.324979	-172.009397	-1.813325	-79.922679	-1.813325	-79.922679	-6.324972	-172.011841
3.900000	-5.907594	-178.511031	-1.979908	-86.449209	-1.979908	-86.449209	-5.907588	-178.513426
3.950000	-5.520266	174.976888	-2.155796	-92.980184	-2.155796	-92.980184	-5.520261	174.974530
4.000000	-5.159852	168.454994	-2.341232	-99.515465	-2.341232	-99.515465	-5.159847	168.452663
4.050000	-4.823613	161.923977	-2.536538	-106.054773	-2.536538	-106.054773	-4.823609	161.921665
4.100000	-4.509171	155.384740	-2.742116	-112.597561	-2.742116	-112.597561	-4.509166	155.382441
4.150000	-4.214469	148.838556	-2.958436	-119.142894	-2.958436	-119.142894	-4.214465	148.836263
4.200000	-3.937824	142.287174	-3.186082	-125.689315	-3.186082	-125.689315	-3.937821	142.284884
4.250000	-3.677693	135.733092	-3.425606	-132.234706	-3.425606	-132.234706	-3.677690	135.730801
4.300000	-3.432778	129.179503	-3.677583	-138.776272	-3.677583	-138.776272	-3.432775	129.177209
4.350000	-3.202038	122.630372	-3.942629	-145.310456	-3.942629	-145.310456	-3.202036	122.628073
4.400000	-2.984616	116.090503	-4.221342	-151.832895	-4.221342	-151.832895	-2.984614	116.088199
4.450000	-2.779814	109.565541	-4.514285	-158.338401	-4.514285	-158.338401	-2.779812	109.563231
4.500000	-2.587064	103.061939	-4.821958	-164.820985	-4.821958	-164.820985	-2.587063	103.059624
4.550000	-2.405905	96.586890	-5.144773	-171.273911	-5.144773	-171.273911	-2.405903	96.584571
4.600000	-2.235986	90.148440	-5.483043	-177.689560	-5.483043	-177.689560	-2.235985	90.146119
4.650000	-2.077014	83.755311	-5.836920	175.940392	-5.836920	175.940392	-2.077013	83.752989
4.700000	-1.928609	77.415830	-6.206390	169.623925	-6.206390	169.623925	-1.928608	77.413510
4.750000	-1.790472	71.138820	-6.591306	163.369579	-6.591306	163.369579	-1.790471	71.136505
4.800000	-1.662296	64.933063	-6.991352	157.185901	-6.991352	157.185901	-1.662296	64.930756
4.850000	-1.543757	58.807112	-7.406052	151.081256	-7.406052	151.081256	-1.543757	58.804815
4.900000	-1.434500	52.769110	-7.834766	145.063640	-7.834766	145.063640	-1.434500	52.766826
4.950000	-1.334141	46.826635	-8.276712	139.140502	-8.276712	139.140502	-1.334141	46.824367
5.000000	-1.242264	40.986563	-8.730976	133.318605	-8.730976	133.318605	-1.242265	40.984313
5.050000	-1.158552	35.257023	-9.196261	127.605942	-9.196261	127.605942	-1.158553	35.254794
5.100000	-1.082402	29.641305	-9.671657	122.005705	-9.671657	122.005705	-1.082402	29.639100
5.150000	-1.013330	24.143623	-10.156005	116.521980	-10.156005	116.521980	-1.013331	24.141443
5.200000	-0.950849	18.767259	-10.648112	111.157914	-10.648112	111.157914	-0.950850	18.765107
5.250000	-0.894468	13.514583	-11.146775	105.915735	-11.146775	105.915735	-0.894470	13.512460
5.300000	-0.843707	8.387094	-11.650800	100.796804	-11.650800	100.796804	-0.843709	8.385002
5.350000	-0.798098	3.385473	-12.159019	95.801674	-12.159019	95.801674	-0.798099	3.383413
5.400000	-0.757191	-1.490346	-12.670304	90.930176	-12.670304	90.930176	-0.757193	-1.492371
5.450000	-0.720562	-6.241095	-13.183579	86.181499	-13.183579	86.181499	-0.720563	-6.243087
5.500000	-0.687809	-10.868101	-13.697825	81.554283	-13.697825	81.554283	-0.687811	-10.870057
5.550000	-0.658561	-15.373194	-14.212089	77.046705	-14.212089	77.046705	-0.658563	-15.375115
5.600000	-0.632473	-19.758637	-14.725485	72.656565	-14.725485	72.656565	-0.632475	-19.760522
5.650000	-0.609256	-24.025806	-15.236841	68.382576	-15.236841	68.382576	-0.609258	-24.027655
5.700000	-0.588615	-28.177710	-15.745396	64.221904	-15.745396	64.221904	-0.588617	-28.179523
5.750000	-0.570260	-32.218755	-16.250822	60.170385	-16.250822	60.170385	-0.570262	-32.220532
5.800000	-0.553957	-36.152239	-16.752501	56.224989	-16.752501	56.224989	-0.553959	-36.153980
5.850000	-0.539496	-39.981570	-17.249876	52.382620	-17.249876	52.382620	-0.539498	-39.983275
5.900000	-0.526688	-43.710225	-17.742442	48.640145	-17.742442	48.640145	-0.526690	-43.711896
5.950000	-0.515365	-47.341719	-18.229747	44.994435	-18.229747	44.994435	-0.515366	-47.343355
6.000000	-0.505376	-50.879565	-18.711383	41.442381	-18.711383	41.442381	-0.505378	-50.881167
6.050000	-0.496588	-54.327259	-19.186988	37.980922	-19.186988	37.980922	-0.496590	-54.328828
6.100000	-0.488882	-57.688251	-19.656239	34.607063	-19.656239	34.607063	-0.488884	-57.689787
6.150000	-0.482152	-60.965933	-20.118851	31.317890	-20.118851	31.317890	-0.482154	-60.967437
6.200000	-0.476305	-64.163624	-20.574573	28.110584	-20.574573	28.110584	-0.476306	-64.165096
6.250000	-0.471256	-67.284559	-21.023183	24.982439	-21.023183	24.982439	-0.471257	-67.286001
6.300000	-0.466953	-70.329573	-21.463521	21.933293	-21.463521	21.933293	-0.466954	-70.330985
6.350000	-0.463306	-73.304228	-21.896434	18.958113	-21.896434	18.958113	-0.463307	-73.305611
6.400000	-0.460255	-76.211462	-22.321778	16.054611	-22.321778	16.054611	-0.460256	-76.212817
6.450000	-0.457750	-79.054112	-22.739426	13.220652	-22.739426	13.220652	-0.457751	-79.055439
6.500000	-0.455745	-81.834912	-23.149265	10.454265	-23.149265	10.454265	-0.455746	-81.836212
6.550000	-0.454199	-84.556493	-23.551190	7.753646	-23.551190	7.753646	-0.454200	-84.557766
6.600000	-0.453075	-87.221387	-23.945102	5.117158	-23.945102	5.117158	-0.453076	-87.222634
6.650000	-0.452340	-89.832023	-24.330907	2.543332	-24.330907	2.543332	-0.452341	-89.833246
6.700000	-0.451965	-92.390737	-24.708504	0.030860	-24.708504	0.030860	-0.451966	-92.391935
6.750000	-0.451924	-94.899767	-25.077788	-2.421416	-25.077788	-2.421416	-0.451924	-94.900942
6.800000	-0.452192	-97.361263	-25.438643	-4.814508	-25.438643	-4.814508	-0.452192	-97.362415
6.850000	-0.452748	-99.777283	-25.790941	-7.149309	-25.790941	-7.149309	-0.452748	-99.778412
6.900000	-0.453574	-102.149802	-26.134533	-9.426602	-26.134533	-9.426602	-0.453574	-102.150910
6.950000	-0.454650	-104.480713	-26.469253	-11.647084	-26.469253	-11.647084	-0.454650	-104.481800
7.000000	-0.455962	-106.771830	-26.794912	-13.811393	-26.794912	-13.811393	-0.455962	-106.772897
7.050000	-0.457495	-109.024892	-27.111296	-15.920126	-27.111296	-15.920126	-0.457494	-109.025939
7.100000	-0.459235	-111.241567	-27.418166	-17.973875	-27.418166	-17.973875	-0.459234	-111.242594
7.150000	-0.461171	-113.423453	-27.715255	-19.973246	-27.715255	-19.973246	-0.461170	-113.424462
7.200000	-0.463291	-115.572085	-28.002269	-21.918892	-28.002269	-21.918892	-0.463290	-115.573075
7.250000	-0.465585	-117.688934	-28.278888	-23.811544	-28.278888	-23.811544	-0.465584	-117.689907
7.300000	-0.468045	-119.775414	-28.544765	-25.652032	-28.544765	-25.652032	-0.468044	-119.776370
7.350000	-0.470661	-121.832882	-28.799530	-27.441325	-28.799530	-27.441325	-0.470660	-121.833821
7.400000	-0.473426	-123.862641	-29.042786	-29.180547	-29.042786	-29.180547	-0.473424	-123.863564
7.450000	-0.476332	-125.865948	-29.274121	-30.871012	-29.274121	-30.871012	-0.476330	-125.866855
7.500000	-0.479372	-127.844007	-29.493103	-32.514244	-29.493103	-32.514244	-0.479371	-127.844899
7.550000	-0.482546	-129.796986	-29.698514	-34.110122	-29.698514	-34.110122	-0.482544	-129.797863
7.600000	-0.485843	-131.727098	-29.890689	-35.662745	-29.890689	-35.662745	-0.485841	-131.727961
7.650000	-0.489256	-133.635417	-30.069167	-37.174431	-30.069167	-37.174431	-0.489253	-133.636265
7.700000	-0.492780	-135.522979	-30.233491	-38.647775	-30.233491	-38.647775	-0.492778	-135.523814
7.750000	-0.496413	-137.390789	-30.383212	-40.085654	-30.383212	-40.085654	-0.496410	-137.391610
7.800000	-0.500149	-139.239816	-30.517894	-41.491224	-30.517894	-41.491224	-0.500146	-139.240624
7.850000	-0.503984	-141.071000	-30.637122	-42.867909	-30.637122	-42.867909	-0.503981	-141.071796
7.900000	-0.507915	-142.885253	-30.740506	-44.219388	-30.740506	-44.219388	-0.507912	-142.886036
7.950000	-0.511939	-144.683460	-30.827689	-45.549571	-30.827689	-45.549571	-0.511936	-144.684231
8.000000	-0.516053	-146.466482	-30.898351	-46.862566	-30.898351	-46.862566	-0.516050	-146.467242
8.050000	-0.520255	-148.235158	-30.952214	-48.162650	-30.952214	-48.162650	-0.520252	-148.235906
8.100000	-0.524543	-149.990307	-30.989043	-49.454220	-30.989043	-49.454220	-0.524539	-149.991044
8.150000	-0.528914	-151.732729	-31.008653	-50.741757	-31.008653	-50.741757	-0.528910	-151.733456
8.200000	-0.533367	-153.463209	-31.010905	-52.029770	-31.010905	-52.029770	-0.533363	-153.463925
8.250000	-0.537901	-155.182516	-30.995711	-53.322754	-30.995711	-53.322754	-0.537897	-155.183222
8.300000	-0.542515	-156.891408	-30.963029	-54.625138	-30.963029	-54.625138	-0.542511	-156.892104
8.350000	-0.547210	-158.590633	-30.912861	-55.941238	-30.912861	-55.941238	-0.547206	-158.591320
8.400000	-0.551985	-160.280931	-30.845250	-57.275217	-30.845250	-57.275217	-0.551981	-160.281609
8.450000	-0.556841	-161.963037	-30.760275	-58.631043	-30.760275	-58.631043	-0.556837	-161.963706
8.500000	-0.561779	-163.637683	-30.658044	-60.012459	-30.658044	-60.012459	-0.561775	-163.638343
8.550000	-0.566802	-165.305600	-30.538686	-61.422954	-30.538686	-61.422954	-0.566797	-165.306252
8.600000	-0.571911	-166.967524	-30.402349	-62.865748	-30.402349	-62.865748	-0.571906	-166.968167
8.650000	-0.577110	-168.624195	-30.249185	-64.343777	-30.249185	-64.343777	-0.577105	-168.624830
8.700000	-0.582405	-170.276363	-30.079347	-65.859691	-30.079347	-65.859691	-0.582399	-170.276991
8.750000	-0.587799	-171.924794	-29.892979	-67.415856	-29.892979	-67.415856	-0.587793	-171.925415
8.800000	-0.593304	-173.570180	-29.689272	-69.016292	-29.689272	-69.016292	-0.593299	-173.570793
8.850000	-0.598925	-175.213494	-29.469191	-70.661049	-29.469191	-70.661049	-0.598920	-175.214100
8.900000	-0.604672	-176.855577	-29.232790	-72.351698	-29.232790	-72.351698	-0.604667	-176.856178
8.950000	-0.610557	-178.497312	-28.980080	-74.089609	-28.980080	-74.089609	-0.610551	-178.497906
9.000000	-0.616593	179.860376	-28.711019	-75.875986	-28.711019	-75.875986	-0.616588	179.859788
9.050000	-0.622800	178.216502	-28.425508	-77.711902	-28.425508	-77.711902	-0.622794	178.215919
9.100000	-0.629197	176.570010	-28.123376	-79.598345	-28.123376	-79.598345	-0.629191	176.569432
9.150000	-0.635810	174.919761	-27.804376	-81.536266	-27.804376	-81.536266	-0.635804	174.919188
9.200000	-0.642702	173.263758	-27.464500	-83.532845	-27.464500	-83.532845	-0.642696	173.263189
9.250000	-0.649824	171.602629	-27.113345	-85.571869	-27.113345	-85.571869	-0.649817	171.602064
9.300000	-0.657261	169.934047	-26.744627	-87.665459	-26.744627	-87.665459	-0.657255	169.933485
9.350000	-0.665180	168.253390	-26.348251	-89.828604	-26.348251	-89.828604	-0.665173	168.252831
9.400000	-0.673503	166.562484	-25.937202	-92.041366	-25.937202	-92.041366	-0.673496	166.561926
9.450000	-0.682267	164.860368	-25.512353	-94.304698	-25.512353	-94.304698	-0.682261	164.859811
9.500000	-0.691811	163.138495	-25.055885	-96.645193	-25.055885	-96.645193	-0.691805	163.137939
9.550000	-0.702184	161.396300	-24.574587	-99.053406	-24.574587	-99.053406	-0.702178	161.395744
9.600000	-0.713388	159.634398	-24.075923	-101.522190	-24.075923	-101.522190	-0.713382	159.633840
9.650000	-0.725616	157.848712	-23.556566	-104.060028	-23.556566	-104.060028	-0.725609	157.848152
9.700000	-0.739809	156.020039	-22.987726	-106.708875	-22.987726	-106.708875	-0.739802	156.019475
9.750000	-0.755269	154.165479	-22.410277	-109.419834	-22.410277	-109.419834	-0.755263	154.164910
9.800000	-0.773478	152.257158	-21.785312	-112.253671	-21.785312	-112.253671	-0.773472	152.256583
9.850000	-0.794864	150.291562	-21.121036	-115.210667	-21.121036	-115.210667	-0.794858	150.290978
9.900000	-0.820334	148.258081	-20.416130	-118.307340	-20.416130	-118.307340	-0.820329	148.257486
9.950000	-0.851920	146.131576	-19.654995	-121.588787	-19.654995	-121.588787	-0.851916	146.130969
10.000000	-0.890772	143.905047	-18.849483	-125.063563	-18.849483	-125.063563	-0.890769	143.904426
