! freq	dB(S11)	phase(S11)	dB(S12)	phase(S12)	
!     	dB(S21)	phase(S21)	dB(S22)	phase(S22)	
!S-par simulation data
#  GHz  S  DB  R 50
0.000000	-96.396869	0.000000	-0.000132	0.000000	-0.000132	0.000000	-96.396869	0.000000
0.050000	-40.808303	-91.512799	-0.001469	-1.420892	-0.001469	-1.420892	-40.808295	-91.512463
0.100000	-34.802028	-93.142095	-0.004906	-2.835106	-0.004906	-2.835106	-34.802019	-93.141424
0.150000	-31.300345	-94.697144	-0.009440	-4.241697	-0.009440	-4.241697	-31.300336	-94.696138
0.200000	-28.823977	-96.202252	-0.014469	-5.643216	-0.014469	-5.643216	-28.823967	-96.200913
0.250000	-26.908778	-97.668357	-0.019835	-7.041910	-0.019835	-7.041910	-26.908766	-97.666687
0.300000	-25.347697	-99.106734	-0.025563	-8.439118	-0.025563	-8.439118	-25.347684	-99.104736
0.350000	-24.030310	-100.527352	-0.031712	-9.835387	-0.031712	-9.835387	-24.030296	-100.525029
0.400000	-22.891234	-101.936398	-0.038350	-11.230779	-0.038350	-11.230779	-22.891219	-101.933750
0.450000	-21.888650	-103.337832	-0.045554	-12.625128	-0.045554	-12.625128	-21.888634	-103.334862
0.500000	-20.993751	-104.734643	-0.053332	-14.018294	-0.053332	-14.018294	-20.993734	-104.731351
0.550000	-20.186231	-106.128282	-0.061703	-15.410079	-0.061703	-15.410079	-20.186214	-106.124667
0.600000	-19.451313	-107.519474	-0.070710	-16.800207	-0.070710	-16.800207	-19.451295	-107.515537
0.650000	-18.777487	-108.908726	-0.080334	-18.188540	-0.080334	-18.188540	-18.777469	-108.904466
0.700000	-18.155885	-110.296213	-0.090568	-19.574927	-0.090568	-19.574927	-18.155866	-110.291631
0.750000	-17.579626	-111.681896	-0.101425	-20.959141	-0.101425	-20.959141	-17.579608	-111.676991
0.800000	-17.043046	-113.065712	-0.112893	-22.341032	-0.112893	-22.341032	-17.043027	-113.060482
0.850000	-16.541464	-114.447567	-0.124953	-23.720489	-0.124953	-23.720489	-16.541445	-114.442013
0.900000	-16.071029	-115.827335	-0.137591	-25.097390	-0.137591	-25.097390	-16.071010	-115.821456
0.950000	-15.628531	-117.204867	-0.150794	-26.471607	-0.150794	-26.471607	-15.628511	-117.198661
1.000000	-15.211235	-118.580022	-0.164545	-27.843028	-0.164545	-27.843028	-15.211215	-118.573489
1.050000	-14.816801	-119.952664	-0.178828	-29.211553	-0.178828	-29.211553	-14.816781	-119.945803
1.100000	-14.443211	-121.322666	-0.193623	-30.577090	-0.193623	-30.577090	-14.443190	-121.315475
1.150000	-14.088709	-122.689908	-0.208912	-31.939554	-0.208912	-31.939554	-14.088688	-122.682387
1.200000	-13.751760	-124.054281	-0.224675	-33.298867	-0.224675	-33.298867	-13.751739	-124.046429
1.250000	-13.431014	-125.415685	-0.240893	-34.654962	-0.240893	-34.654962	-13.430992	-125.407501
1.300000	-13.125353	-126.773962	-0.257553	-36.007702	-0.257553	-36.007702	-13.125331	-126.765445
1.350000	-12.833631	-128.129095	-0.274626	-37.357106	-0.274626	-37.357106	-12.833610	-128.120244
1.400000	-12.554897	-129.481015	-0.292091	-38.703124	-0.292091	-38.703124	-12.554875	-129.471829
1.450000	-12.288296	-130.829658	-0.309927	-40.045717	-0.309927	-40.045717	-12.288274	-130.820136
1.500000	-12.033057	-132.174971	-0.328115	-41.384850	-0.328115	-41.384850	-12.033035	-132.165111
1.550000	-11.788483	-133.516908	-0.346632	-42.720495	-0.346632	-42.720495	-11.788460	-133.506709
1.600000	-11.553939	-134.855431	-0.365459	-44.052630	-0.365459	-44.052630	-11.553916	-134.844892
1.650000	-11.328849	-136.190508	-0.384575	-45.381239	-0.384575	-45.381239	-11.328826	-136.179629
1.700000	-11.112685	-137.522118	-0.403961	-46.706311	-0.403961	-46.706311	-11.112661	-137.510896
1.750000	-10.904962	-138.850244	-0.423595	-48.027840	-0.423595	-48.027840	-10.904938	-138.838678
1.800000	-10.705236	-140.174875	-0.443459	-49.345826	-0.443459	-49.345826	-10.705212	-140.162964
1.850000	-10.513097	-141.496007	-0.463533	-50.660271	-0.463533	-50.660271	-10.513073	-141.483751
1.900000	-10.328199	-142.813606	-0.483799	-51.971148	-0.483799	-51.971148	-10.328175	-142.801002
1.950000	-10.150190	-144.127679	-0.504238	-53.278468	-0.504238	-53.278468	-10.150165	-144.114726
2.000000	-9.978711	-145.438278	-0.524830	-54.582288	-0.524830	-54.582288	-9.978686	-145.424975
2.050000	-9.813458	-146.745422	-0.545556	-55.882628	-0.545556	-55.882628	-9.813433	-146.731767
2.100000	-9.654150	-148.049135	-0.566399	-57.179512	-0.566399	-57.179512	-9.654125	-148.035126
2.150000	-9.500524	-149.349444	-0.587342	-58.472970	-0.587342	-58.472970	-9.500498	-149.335080
2.200000	-9.352333	-150.646383	-0.608368	-59.763030	-0.608368	-59.763030	-9.352307	-150.631662
2.250000	-9.209348	-151.939988	-0.629459	-61.049728	-0.629459	-61.049728	-9.209322	-151.924909
2.300000	-9.071352	-153.230299	-0.650600	-62.333101	-0.650600	-62.333101	-9.071326	-153.214859
2.350000	-8.938143	-154.517360	-0.671776	-63.613188	-0.671776	-63.613188	-8.938117	-154.501559
2.400000	-8.809530	-155.801218	-0.692969	-64.890030	-0.692969	-64.890030	-8.809504	-155.785054
2.450000	-8.685333	-157.081925	-0.714166	-66.163674	-0.714166	-66.163674	-8.685307	-157.065396
2.500000	-8.565383	-158.359534	-0.735351	-67.434164	-0.735351	-67.434164	-8.565357	-158.342637
2.550000	-8.449573	-159.634035	-0.756509	-68.701485	-0.756509	-68.701485	-8.449547	-159.616769
2.600000	-8.337698	-160.905555	-0.777627	-69.965754	-0.777627	-69.965754	-8.337672	-160.887918
2.650000	-8.229614	-162.174156	-0.798690	-71.227026	-0.798690	-71.227026	-8.229588	-162.156146
2.700000	-8.125187	-163.439900	-0.819687	-72.485355	-0.819687	-72.485355	-8.125161	-163.421515
2.750000	-8.024289	-164.702852	-0.840604	-73.740796	-0.840604	-73.740796	-8.024263	-164.684090
2.800000	-7.926797	-165.963079	-0.861428	-74.993409	-0.861428	-74.993409	-7.926771	-165.943938
2.850000	-7.832597	-167.220649	-0.882148	-76.243252	-0.882148	-76.243252	-7.832571	-167.201127
2.900000	-7.741578	-168.475633	-0.902751	-77.490386	-0.902751	-77.490386	-7.741553	-168.455727
2.950000	-7.653638	-169.728102	-0.923227	-78.734873	-0.923227	-78.734873	-7.653613	-169.707810
3.000000	-7.568676	-170.978126	-0.943564	-79.976777	-0.943564	-79.976777	-7.568652	-170.957446
3.050000	-7.486599	-172.225780	-0.963752	-81.216164	-0.963752	-81.216164	-7.486574	-172.204710
3.100000	-7.407316	-173.471137	-0.983779	-82.453097	-0.983779	-82.453097	-7.407292	-173.449675
3.150000	-7.330763	-174.714248	-1.003634	-83.687621	-1.003634	-83.687621	-7.330739	-174.692391
3.200000	-7.256856	-175.955192	-1.023307	-84.919804	-1.023307	-84.919804	-7.256833	-175.932938
3.250000	-7.185497	-177.194067	-1.042790	-86.149743	-1.042790	-86.149743	-7.185474	-177.171413
3.300000	-7.116610	-178.430950	-1.062074	-87.377507	-1.062074	-87.377507	-7.116587	-178.407894
3.350000	-7.050284	-179.665758	-1.081129	-88.602992	-1.081129	-88.602992	-7.050261	-179.642298
3.400000	-6.986108	179.101090	-1.099992	-89.826648	-1.099992	-89.826648	-6.986086	179.124957
3.450000	-6.924200	177.869703	-1.118632	-91.048344	-1.118632	-91.048344	-6.924178	177.893979
3.500000	-6.864498	176.640006	-1.137041	-92.268152	-1.137041	-92.268152	-6.864477	176.664694
3.550000	-6.806942	175.411923	-1.155210	-93.486148	-1.155210	-93.486148	-6.806920	175.437025
3.600000	-6.751473	174.185377	-1.173134	-94.702405	-1.173134	-94.702405	-6.751452	174.210897
3.650000	-6.698038	172.960295	-1.190806	-95.917000	-1.190806	-95.917000	-6.698018	172.986233
3.700000	-6.646582	171.736600	-1.208218	-97.130008	-1.208218	-97.130008	-6.646563	171.762961
3.750000	-6.597057	170.514219	-1.225364	-98.341505	-1.225364	-98.341505	-6.597037	170.541004
3.800000	-6.549480	169.293127	-1.242227	-99.551510	-1.242227	-99.551510	-6.549461	169.320340
3.850000	-6.503735	168.073195	-1.258812	-100.760166	-1.258812	-100.760166	-6.503717	168.100837
3.900000	-6.459776	166.854350	-1.275115	-101.967551	-1.275115	-101.967551	-6.459759	166.882425
3.950000	-6.417560	165.636519	-1.291132	-103.173742	-1.291132	-103.173742	-6.417544	165.665030
4.000000	-6.377046	164.419633	-1.306857	-104.378817	-1.306857	-104.378817	-6.377030	164.448582
4.050000	-6.338193	163.203621	-1.322287	-105.582856	-1.322287	-105.582856	-6.338178	163.233010
4.100000	-6.300963	161.988413	-1.337417	-106.785936	-1.337417	-106.785936	-6.300948	162.018245
4.150000	-6.265318	160.773940	-1.352244	-107.988136	-1.352244	-107.988136	-6.265304	160.804219
4.200000	-6.231223	159.560136	-1.366766	-109.189535	-1.366766	-109.189535	-6.231210	159.590863
4.250000	-6.198642	158.346934	-1.380978	-110.390210	-1.380978	-110.390210	-6.198630	158.378112
4.300000	-6.167543	157.134267	-1.394879	-111.590241	-1.394879	-111.590241	-6.167531	157.165899
4.350000	-6.137892	155.922072	-1.408466	-112.789705	-1.408466	-112.789705	-6.137882	155.954161
4.400000	-6.109659	154.710284	-1.421737	-113.988681	-1.421737	-113.988681	-6.109650	154.742832
4.450000	-6.082814	153.498842	-1.434691	-115.187246	-1.434691	-115.187246	-6.082806	153.531852
4.500000	-6.057327	152.287684	-1.447326	-116.385478	-1.447326	-116.385478	-6.057319	152.321159
4.550000	-6.033169	151.076749	-1.459641	-117.583453	-1.459641	-117.583453	-6.033163	151.110692
4.600000	-6.010314	149.865979	-1.471635	-118.781248	-1.471635	-118.781248	-6.010309	149.900393
4.650000	-5.988735	148.655317	-1.483308	-119.978939	-1.483308	-119.978939	-5.988731	148.690203
4.700000	-5.968405	147.444704	-1.494660	-121.176601	-1.494660	-121.176601	-5.968402	147.480065
4.750000	-5.949301	146.234085	-1.505691	-122.374310	-1.505691	-122.374310	-5.949299	146.269925
4.800000	-5.931396	145.023407	-1.516401	-123.572139	-1.516401	-123.572139	-5.931396	145.059727
4.850000	-5.914669	143.812616	-1.526791	-124.770162	-1.526791	-124.770162	-5.914670	143.849420
4.900000	-5.899095	142.601660	-1.536862	-125.968452	-1.536862	-125.968452	-5.899098	142.638950
4.950000	-5.884653	141.390489	-1.546615	-127.167080	-1.546615	-127.167080	-5.884657	141.428267
5.000000	-5.871321	140.179053	-1.556051	-128.366118	-1.556051	-128.366118	-5.871326	140.217322
5.050000	-5.859122	138.967288	-1.565159	-129.565659	-1.565159	-129.565659	-5.859129	139.006050
5.100000	-5.847989	137.755159	-1.573953	-130.765756	-1.573953	-130.765756	-5.847998	137.794418
5.150000	-5.837903	136.542621	-1.582438	-131.966475	-1.582438	-131.966475	-5.837913	136.582378
5.200000	-5.828842	135.329630	-1.590615	-133.167884	-1.590615	-133.167884	-5.828855	135.369887
5.250000	-5.820789	134.116142	-1.598487	-134.370049	-1.598487	-134.370049	-5.820803	134.156903
5.300000	-5.813723	132.902117	-1.606057	-135.573034	-1.606057	-135.573034	-5.813739	132.943383
5.350000	-5.807627	131.687514	-1.613328	-136.776903	-1.613328	-136.776903	-5.807645	131.729288
5.400000	-5.802483	130.472295	-1.620303	-137.981717	-1.620303	-137.981717	-5.802503	130.514579
5.450000	-5.798272	129.256421	-1.626987	-139.187538	-1.626987	-139.187538	-5.798294	129.299217
5.500000	-5.794978	128.039858	-1.633383	-140.394426	-1.633383	-140.394426	-5.795002	128.083167
5.550000	-5.792583	126.822568	-1.639494	-141.602438	-1.639494	-141.602438	-5.792610	126.866393
5.600000	-5.791071	125.604521	-1.645326	-142.811631	-1.645326	-142.811631	-5.791100	125.648863
5.650000	-5.790425	124.385682	-1.650882	-144.022062	-1.650882	-144.022062	-5.790456	124.430544
5.700000	-5.790629	123.166021	-1.656167	-145.233783	-1.656167	-145.233783	-5.790663	123.211404
5.750000	-5.791668	121.945510	-1.661186	-146.446849	-1.661186	-146.446849	-5.791704	121.991416
5.800000	-5.793524	120.724119	-1.665944	-147.661308	-1.665944	-147.661308	-5.793563	120.770549
5.850000	-5.796184	119.501822	-1.670446	-148.877212	-1.670446	-148.877212	-5.796226	119.548778
5.900000	-5.799632	118.278594	-1.674696	-150.094608	-1.674696	-150.094608	-5.799676	118.326076
5.950000	-5.803853	117.054410	-1.678701	-151.313542	-1.678701	-151.313542	-5.803899	117.102421
6.000000	-5.808832	115.829249	-1.682465	-152.534060	-1.682465	-152.534060	-5.808881	115.877789
6.050000	-5.814554	114.603089	-1.685995	-153.756203	-1.685995	-153.756203	-5.814606	114.652159
6.100000	-5.821005	113.375910	-1.689295	-154.980015	-1.689295	-154.980015	-5.821060	113.425512
6.150000	-5.828171	112.147695	-1.692372	-156.205534	-1.692372	-156.205534	-5.828228	112.197828
6.200000	-5.836037	110.918426	-1.695232	-157.432800	-1.695232	-157.432800	-5.836098	110.969091
6.250000	-5.844590	109.688089	-1.697879	-158.661848	-1.697879	-158.661848	-5.844653	109.739286
6.300000	-5.853843	108.456620	-1.700313	-159.892794	-1.700313	-159.892794	-5.853910	108.508350
6.350000	-5.863754	107.224056	-1.702548	-161.125593	-1.702548	-161.125593	-5.863824	107.276319
6.400000	-5.874309	105.990385	-1.704590	-162.360277	-1.704590	-162.360277	-5.874382	106.043180
6.450000	-5.885495	104.755597	-1.706446	-163.596875	-1.706446	-163.596875	-5.885571	104.808925
6.500000	-5.897297	103.519686	-1.708121	-164.835415	-1.708121	-164.835415	-5.897377	103.573545
6.550000	-5.909704	102.282645	-1.709623	-166.075923	-1.709623	-166.075923	-5.909786	102.337035
6.600000	-5.922701	101.044470	-1.710957	-167.318424	-1.710957	-167.318424	-5.922787	101.099390
6.650000	-5.936275	99.805157	-1.712130	-168.562941	-1.712130	-168.562941	-5.936364	99.860606
6.700000	-5.950414	98.564706	-1.713147	-169.809494	-1.713147	-169.809494	-5.950507	98.620682
6.750000	-5.965105	97.323115	-1.714017	-171.058103	-1.714017	-171.058103	-5.965201	97.379618
6.800000	-5.980335	96.080388	-1.714743	-172.308786	-1.714743	-172.308786	-5.980434	96.137414
6.850000	-5.996091	94.836526	-1.715334	-173.561559	-1.715334	-173.561559	-5.996193	94.894075
6.900000	-6.012360	93.591537	-1.715796	-174.816436	-1.715796	-174.816436	-6.012466	93.649606
6.950000	-6.029130	92.345425	-1.716134	-176.073432	-1.716134	-176.073432	-6.029239	92.404012
7.000000	-6.046388	91.098200	-1.716355	-177.332557	-1.716355	-177.332557	-6.046501	91.157301
7.050000	-6.064123	89.849871	-1.716465	-178.593821	-1.716465	-178.593821	-6.064239	89.909484
7.100000	-6.082321	88.600450	-1.716470	-179.857233	-1.716470	-179.857233	-6.082441	88.660572
7.150000	-6.100970	87.349951	-1.716377	178.877201	-1.716377	178.877201	-6.101093	87.410577
7.200000	-6.120059	86.098389	-1.716191	177.609474	-1.716191	177.609474	-6.120185	86.159516
7.250000	-6.139574	84.845780	-1.715918	176.339583	-1.715918	176.339583	-6.139704	84.907404
7.300000	-6.159504	83.592144	-1.715565	175.067525	-1.715565	175.067525	-6.159637	83.654260
7.350000	-6.179837	82.337501	-1.715136	173.793299	-1.715136	173.793299	-6.179974	82.400105
7.400000	-6.200561	81.081872	-1.714638	172.516903	-1.714638	172.516903	-6.200701	81.144959
7.450000	-6.221664	79.825283	-1.714077	171.238340	-1.714077	171.238340	-6.221807	79.888847
7.500000	-6.243134	78.567758	-1.713457	169.957610	-1.713457	169.957610	-6.243280	78.631794
7.550000	-6.264972	77.309288	-1.712782	168.674625	-1.712782	168.674625	-6.265121	77.373789
7.600000	-6.287153	76.049942	-1.712060	167.389483	-1.712060	167.389483	-6.287305	76.114902
7.650000	-6.309664	74.789753	-1.711296	166.102188	-1.711296	166.102188	-6.309820	74.855166
7.700000	-6.332496	73.528753	-1.710496	164.812748	-1.710496	164.812748	-6.332654	73.594612
7.750000	-6.355635	72.266978	-1.709663	163.521171	-1.709663	163.521171	-6.355797	72.333275
7.800000	-6.379072	71.004465	-1.708804	162.227463	-1.708804	162.227463	-6.379236	71.071193
7.850000	-6.402794	69.741253	-1.707922	160.931635	-1.707922	160.931635	-6.402961	69.808403
7.900000	-6.426791	68.477382	-1.707022	159.633697	-1.707022	159.633697	-6.426961	68.544947
7.950000	-6.451052	67.212896	-1.706109	158.333658	-1.706109	158.333658	-6.451224	67.280866
8.000000	-6.475565	65.947838	-1.705186	157.031529	-1.705186	157.031529	-6.475740	66.016205
8.050000	-6.500320	64.682255	-1.704259	155.727323	-1.704259	155.727323	-6.500498	64.751010
8.100000	-6.525307	63.416195	-1.703332	154.421052	-1.703332	154.421052	-6.525487	63.485328
8.150000	-6.550514	62.149708	-1.702407	153.112727	-1.702407	153.112727	-6.550696	62.219209
8.200000	-6.575931	60.882845	-1.701490	151.802362	-1.701490	151.802362	-6.576115	60.952704
8.250000	-6.601548	59.615661	-1.700584	150.489970	-1.700584	150.489970	-6.601734	59.685866
8.300000	-6.627354	58.348211	-1.699692	149.175564	-1.699692	149.175564	-6.627542	58.418752
8.350000	-6.653340	57.080551	-1.698818	147.859158	-1.698818	147.859158	-6.653530	57.151416
8.400000	-6.679496	55.812740	-1.697965	146.540765	-1.697965	146.540765	-6.679687	55.883918
8.450000	-6.705811	54.544840	-1.697137	145.220398	-1.697137	145.220398	-6.706003	54.616319
8.500000	-6.732276	53.276912	-1.696337	143.898073	-1.696337	143.898073	-6.732470	53.348679
8.550000	-6.758881	52.009021	-1.695568	142.573801	-1.695568	142.573801	-6.759076	52.081064
8.600000	-6.785617	50.741232	-1.694833	141.247596	-1.694833	141.247596	-6.785813	50.813537
8.650000	-6.812475	49.473612	-1.694135	139.919471	-1.694135	139.919471	-6.812672	49.546166
8.700000	-6.839446	48.206230	-1.693477	138.589440	-1.693477	138.589440	-6.839643	48.279019
8.750000	-6.866520	46.939156	-1.692862	137.257515	-1.692862	137.257515	-6.866718	47.012167
8.800000	-6.893689	45.672483	-1.692294	135.923626	-1.692294	135.923626	-6.893887	45.745701
8.850000	-6.920944	44.406271	-1.691775	134.587868	-1.691775	134.587868	-6.921142	44.479681
8.900000	-6.948276	43.140594	-1.691307	133.250252	-1.691307	133.250252	-6.948473	43.214181
8.950000	-6.975676	41.875529	-1.690893	131.910789	-1.690893	131.910789	-6.975874	41.949278
9.000000	-7.003138	40.611153	-1.690536	130.569489	-1.690536	130.569489	-7.003335	40.685049
9.050000	-7.030653	39.347546	-1.690238	129.226361	-1.690238	129.226361	-7.030849	39.421573
9.100000	-7.058213	38.084788	-1.690002	127.881414	-1.690002	127.881414	-7.058408	38.158930
9.150000	-7.085811	36.822960	-1.689831	126.534657	-1.689831	126.534657	-7.086005	36.897201
9.200000	-7.113440	35.562145	-1.689728	125.186097	-1.689728	125.186097	-7.113632	35.636468
9.250000	-7.141093	34.302425	-1.689694	123.835740	-1.689694	123.835740	-7.141283	34.376814
9.300000	-7.168762	33.043887	-1.689734	122.483595	-1.689734	122.483595	-7.168950	33.118325
9.350000	-7.196442	31.786614	-1.689850	121.129664	-1.689850	121.129664	-7.196627	31.861084
9.400000	-7.224125	30.530694	-1.690045	119.773954	-1.690045	119.773954	-7.224308	30.605178
9.450000	-7.251806	29.276213	-1.690322	118.416468	-1.690322	118.416468	-7.251986	29.350695
9.500000	-7.279479	28.023259	-1.690684	117.057209	-1.690684	117.057209	-7.279655	28.097721
9.550000	-7.307137	26.771921	-1.691136	115.696180	-1.691136	115.696180	-7.307310	26.846345
9.600000	-7.334775	25.522288	-1.691680	114.333382	-1.691680	114.333382	-7.334944	25.596656
9.650000	-7.362388	24.274450	-1.692320	112.968816	-1.692320	112.968816	-7.362553	24.348744
9.700000	-7.389971	23.028495	-1.693061	111.602482	-1.693061	111.602482	-7.390131	23.102697
9.750000	-7.417518	21.784516	-1.693905	110.234380	-1.693905	110.234380	-7.417674	21.858608
9.800000	-7.445025	20.542602	-1.694858	108.864508	-1.694858	108.864508	-7.445176	20.616566
9.850000	-7.472488	19.302845	-1.695923	107.492866	-1.695923	107.492866	-7.472633	19.376662
9.900000	-7.499902	18.065336	-1.697106	106.119450	-1.697106	106.119450	-7.500041	18.138987
9.950000	-7.527263	16.830165	-1.698412	104.744257	-1.698412	104.744257	-7.527396	16.903633
10.000000	-7.554567	15.597424	-1.699845	103.367285	-1.699845	103.367285	-7.554694	15.670689
