! freq	dB(S11)	phase(S11)	dB(S12)	phase(S12)	
!     	dB(S21)	phase(S21)	dB(S22)	phase(S22)	
!S-par simulation data
#  GHz  S  DB  R 50
0.000000	-82.844905	0.000000	-0.000626	0.000000	-0.000626	0.000000	-82.844905	0.000000
0.050000	-54.365327	-90.001980	-0.006107	-2.265812	-0.006107	-2.265812	-54.365298	-90.001292
0.100000	-48.374970	-93.267949	-0.011170	-4.483866	-0.011170	-4.483866	-48.374944	-93.266552
0.150000	-44.899443	-95.825226	-0.013814	-6.696068	-0.013814	-6.696068	-44.899420	-95.823105
0.200000	-42.462812	-98.228856	-0.015706	-8.909854	-0.015706	-8.909854	-42.462792	-98.225992
0.250000	-40.607933	-100.581013	-0.017418	-11.125167	-0.017418	-11.125167	-40.607914	-100.577384
0.300000	-39.127859	-102.917907	-0.019157	-13.341360	-0.019157	-13.341360	-39.127841	-102.913490
0.350000	-37.919861	-105.253938	-0.021004	-15.558032	-0.021004	-15.558032	-37.919843	-105.248707
0.400000	-36.915351	-107.594264	-0.022965	-17.774925	-0.022965	-17.774925	-36.915332	-107.588191
0.450000	-36.073485	-109.940384	-0.025033	-19.991965	-0.025033	-19.991965	-36.073466	-109.933437
0.500000	-35.370063	-112.292877	-0.027196	-22.209170	-0.027196	-22.209170	-35.370042	-112.285013
0.550000	-34.784074	-114.651484	-0.029432	-24.426617	-0.029432	-24.426617	-34.784053	-114.642653
0.600000	-34.301578	-117.016174	-0.031722	-26.644430	-0.031722	-26.644430	-34.301557	-117.006315
0.650000	-33.915691	-119.387479	-0.034048	-28.862786	-0.034048	-28.862786	-33.915670	-119.376516
0.700000	-33.620614	-121.766196	-0.036394	-31.081888	-0.036394	-31.081888	-33.620596	-121.754031
0.750000	-33.410841	-124.153372	-0.038745	-33.301928	-0.038745	-33.301928	-33.410825	-124.139892
0.800000	-33.286271	-126.550967	-0.041089	-35.523149	-0.041089	-35.523149	-33.286260	-126.536026
0.850000	-33.251035	-128.962129	-0.043417	-37.745856	-0.043417	-37.745856	-33.251032	-128.945539
0.900000	-33.304841	-131.389963	-0.045723	-39.970245	-0.045723	-39.970245	-33.304848	-131.371495
0.950000	-33.453810	-133.839401	-0.048003	-42.196581	-0.048003	-42.196581	-33.453831	-133.818762
1.000000	-33.713134	-136.319350	-0.050254	-44.425270	-0.050254	-44.425270	-33.713175	-136.296129
1.050000	-34.092459	-138.839225	-0.052480	-46.656499	-0.052480	-46.656499	-34.092527	-138.812891
1.100000	-34.612021	-141.414492	-0.054685	-48.890549	-0.054685	-48.890549	-34.612130	-141.384313
1.150000	-35.307665	-144.073880	-0.056874	-51.127843	-0.056874	-51.127843	-35.307834	-144.038748
1.200000	-36.225721	-146.861758	-0.059059	-53.368658	-0.059059	-53.368658	-36.225986	-146.819986
1.250000	-37.439749	-149.856393	-0.061252	-55.613238	-0.061252	-55.613238	-37.440178	-149.805280
1.300000	-39.087527	-153.235081	-0.063471	-57.861987	-0.063471	-57.861987	-39.088279	-153.169631
1.350000	-41.441047	-157.469078	-0.065737	-60.115329	-0.065737	-60.115329	-41.442569	-157.378320
1.400000	-45.133517	-164.070470	-0.068071	-62.373429	-0.068071	-62.373429	-45.137632	-163.925269
1.450000	-52.380698	176.907511	-0.070501	-64.636630	-0.070501	-64.636630	-52.405266	177.220391
1.500000	-54.088492	63.574671	-0.073066	-66.905560	-0.073066	-66.905560	-54.132367	63.228337
1.550000	-44.919511	32.867305	-0.075793	-69.180260	-0.075793	-69.180260	-44.924949	32.705358
1.600000	-40.019153	25.188732	-0.078724	-71.461054	-0.078724	-71.461054	-40.021017	25.093425
1.650000	-36.662419	20.717208	-0.081912	-73.748560	-0.081912	-73.748560	-36.663336	20.649963
1.700000	-34.082528	17.201206	-0.085395	-76.042802	-0.085395	-76.042802	-34.083060	17.149759
1.750000	-31.963571	14.122755	-0.089237	-78.344285	-0.089237	-78.344285	-31.963910	14.081356
1.800000	-30.154414	11.271287	-0.093493	-80.653243	-0.093493	-80.653243	-30.154643	11.236895
1.850000	-28.568039	8.552727	-0.098228	-82.969967	-0.098228	-82.969967	-28.568198	8.523521
1.900000	-27.149874	5.917747	-0.103513	-85.294770	-0.103513	-85.294770	-27.149987	5.892549
1.950000	-25.864072	3.337363	-0.109424	-87.627908	-0.109424	-87.627908	-25.864153	3.315371
2.000000	-24.685873	0.793573	-0.116036	-89.969561	-0.116036	-89.969561	-24.685932	0.774217
2.050000	-23.596926	-1.725158	-0.123434	-92.319929	-0.123434	-92.319929	-23.596967	-1.742298
2.100000	-22.583466	-4.226729	-0.131704	-94.679179	-0.131704	-94.679179	-22.583494	-4.241973
2.150000	-21.634900	-6.716740	-0.140940	-97.047445	-0.140940	-97.047445	-21.634917	-6.730334
2.200000	-20.742800	-9.199252	-0.151240	-99.424850	-0.151240	-99.424850	-20.742809	-9.211396
2.250000	-19.900351	-11.677304	-0.162712	-101.811500	-0.162712	-101.811500	-19.900354	-11.688156
2.300000	-19.102453	-14.153221	-0.175452	-104.207332	-0.175452	-104.207332	-19.102450	-14.162910
2.350000	-18.344628	-16.628727	-0.189566	-106.612312	-0.189566	-106.612312	-18.344621	-16.637360
2.400000	-17.623148	-19.105135	-0.205162	-109.026355	-0.205162	-109.026355	-17.623137	-19.112802
2.450000	-16.934874	-21.583436	-0.222353	-111.449325	-0.222353	-111.449325	-16.934860	-21.590213
2.500000	-16.277139	-24.064362	-0.241249	-113.881029	-0.241249	-113.881029	-16.277122	-24.070313
2.550000	-15.647473	-26.548469	-0.261985	-116.321308	-0.261985	-116.321308	-15.647454	-26.553651
2.600000	-15.044136	-29.036056	-0.284656	-118.769757	-0.284656	-118.769757	-15.044115	-29.040517
2.650000	-14.465417	-31.527296	-0.309372	-121.226009	-0.309372	-121.226009	-14.465394	-31.531077
2.700000	-13.909820	-34.022219	-0.336245	-123.689631	-0.336245	-123.689631	-13.909795	-34.025357
2.750000	-13.376029	-36.520732	-0.365383	-126.160133	-0.365383	-126.160133	-13.376003	-36.523259
2.800000	-12.862886	-39.022625	-0.396890	-128.636963	-0.396890	-128.636963	-12.862858	-39.024570
2.850000	-12.369290	-41.527605	-0.430886	-131.119549	-0.430886	-131.119549	-12.369262	-41.528994
2.900000	-11.894390	-44.035237	-0.467455	-133.607178	-0.467455	-133.607178	-11.894360	-44.036092
2.950000	-11.437380	-46.545007	-0.506680	-136.099106	-0.506680	-136.099106	-11.437349	-46.545349
3.000000	-10.997512	-49.056329	-0.548642	-138.594548	-0.548642	-138.594548	-10.997480	-49.056176
3.050000	-10.574105	-51.568539	-0.593418	-141.092671	-0.593418	-141.092671	-10.574072	-51.567907
3.100000	-10.166535	-54.080906	-0.641073	-143.592596	-0.641073	-143.592596	-10.166502	-54.079811
3.150000	-9.774218	-56.592628	-0.691679	-146.093401	-0.691679	-146.093401	-9.774184	-56.591082
3.200000	-9.396636	-59.102841	-0.745283	-148.594109	-0.745283	-148.594109	-9.396601	-59.100857
3.250000	-9.033311	-61.610651	-0.801910	-151.093728	-0.801910	-151.093728	-9.033275	-61.608241
3.300000	-8.683775	-64.115122	-0.861584	-153.591241	-0.861584	-153.591241	-8.683739	-64.112295
3.350000	-8.347591	-66.615287	-0.924321	-156.085618	-0.924321	-156.085618	-8.347555	-66.612051
3.400000	-8.024340	-69.110153	-0.990126	-158.575813	-0.990126	-158.575813	-8.024303	-69.106518
3.450000	-7.713625	-71.598694	-1.058996	-161.060762	-1.058996	-161.060762	-7.713588	-71.594667
3.500000	-7.415079	-74.079843	-1.130926	-163.539367	-1.130926	-163.539367	-7.415041	-74.075432
3.550000	-7.128319	-76.552638	-1.205865	-166.010636	-1.205865	-166.010636	-7.128280	-76.547849
3.600000	-6.852983	-79.016076	-1.283770	-168.473546	-1.283770	-168.473546	-6.852944	-79.010914
3.650000	-6.588719	-81.469170	-1.364589	-170.927097	-1.364589	-170.927097	-6.588680	-81.463641
3.700000	-6.335181	-83.910956	-1.448259	-173.370321	-1.448259	-173.370321	-6.335141	-83.905064
3.750000	-6.092030	-86.340501	-1.534706	-175.802279	-1.534706	-175.802279	-6.091990	-86.334252
3.800000	-5.858975	-88.756757	-1.623868	-178.221931	-1.623868	-178.221931	-5.858934	-88.750155
3.850000	-5.635651	-91.159004	-1.715631	179.371451	-1.715631	179.371451	-5.635610	-91.152051
3.900000	-5.421734	-93.546435	-1.809898	176.978674	-1.809898	176.978674	-5.421693	-93.539136
3.950000	-5.216905	-95.918296	-1.906561	174.600488	-1.906561	174.600488	-5.216864	-95.910654
4.000000	-5.020851	-98.273888	-2.005509	172.237594	-2.005509	172.237594	-5.020810	-98.265906
4.050000	-4.833261	-100.612569	-2.106623	169.890632	-2.106623	169.890632	-4.833219	-100.604250
4.100000	-4.653996	-102.933071	-2.209808	167.560836	-2.209808	167.560836	-4.653953	-102.924416
4.150000	-4.482450	-105.236126	-2.314882	165.247546	-2.314882	165.247546	-4.482407	-105.227139
4.200000	-4.318468	-107.520706	-2.421744	162.951765	-2.421744	162.951765	-4.318425	-107.511387
4.250000	-4.161762	-109.786414	-2.530263	160.673898	-2.530263	160.673898	-4.161719	-109.776767
4.300000	-4.012048	-112.032915	-2.640305	158.414291	-2.640305	158.414291	-4.012004	-112.022941
4.350000	-3.869049	-114.259936	-2.751738	156.173234	-2.751738	156.173234	-3.869005	-114.249636
4.400000	-3.732538	-116.467044	-2.864424	153.951166	-2.864424	153.951166	-3.732494	-116.456420
4.450000	-3.602251	-118.654079	-2.978226	151.748268	-2.978226	151.748268	-3.602206	-118.643131
4.500000	-3.477882	-120.821154	-3.093014	149.564460	-3.093014	149.564460	-3.477837	-120.809885
4.550000	-3.359182	-122.968222	-3.208659	147.399814	-3.208659	147.399814	-3.359137	-122.956633
4.600000	-3.245909	-125.095286	-3.325033	145.254358	-3.325033	145.254358	-3.245863	-125.083377
4.650000	-3.137826	-127.202394	-3.442013	143.128072	-3.442013	143.128072	-3.137780	-127.190166
4.700000	-3.034706	-129.289638	-3.559476	141.020897	-3.559476	141.020897	-3.034660	-129.277093
4.750000	-2.936330	-131.357151	-3.677304	138.932736	-3.677304	138.932736	-2.936284	-131.344289
4.800000	-2.842486	-133.405103	-3.795384	136.863454	-3.795384	136.863454	-2.842439	-133.391924
4.850000	-2.752969	-135.433698	-3.913603	134.812884	-3.913603	134.812884	-2.752922	-135.420203
4.900000	-2.667584	-137.443170	-4.031855	132.780830	-4.031855	132.780830	-2.667537	-137.429360
4.950000	-2.586143	-139.433784	-4.150036	130.767068	-4.150036	130.767068	-2.586095	-139.419659
5.000000	-2.508463	-141.405827	-4.268049	128.771348	-4.268049	128.771348	-2.508416	-141.391387
5.050000	-2.434434	-143.359221	-4.385756	126.793781	-4.385756	126.793781	-2.434386	-143.344467
5.100000	-2.363823	-145.294701	-4.503106	124.833683	-4.503106	124.833683	-2.363775	-145.279633
5.150000	-2.296472	-147.212616	-4.620013	122.890745	-4.620013	122.890745	-2.296424	-147.197234
5.200000	-2.232229	-149.113327	-4.736396	120.964644	-4.736396	120.964644	-2.232181	-149.097632
5.250000	-2.170950	-150.997209	-4.852177	119.055046	-4.852177	119.055046	-2.170901	-150.981200
5.300000	-2.112496	-152.864646	-4.967283	117.161604	-4.967283	117.161604	-2.112447	-152.848325
5.350000	-2.056736	-154.716032	-5.081645	115.283964	-5.081645	115.283964	-2.056687	-154.699397
5.400000	-2.003544	-156.551764	-5.195198	113.421763	-5.195198	113.421763	-2.003496	-156.534816
5.450000	-1.952802	-158.372246	-5.307879	111.574635	-5.307879	111.574635	-1.952753	-158.354984
5.500000	-1.904395	-160.177883	-5.419631	109.742207	-5.419631	109.742207	-1.904346	-160.160308
5.550000	-1.858214	-161.969082	-5.530399	107.924106	-5.530399	107.924106	-1.858166	-161.951194
5.600000	-1.814158	-163.746252	-5.640132	106.119955	-5.640132	106.119955	-1.814110	-163.728051
5.650000	-1.772147	-165.509656	-5.748757	104.329522	-5.748757	104.329522	-1.772099	-165.491141
5.700000	-1.732085	-167.259712	-5.856227	102.552417	-5.856227	102.552417	-1.732037	-167.240883
5.750000	-1.693864	-168.996971	-5.962528	100.788118	-5.962528	100.788118	-1.693816	-168.977828
5.800000	-1.657401	-170.721831	-6.067623	99.036254	-6.067623	99.036254	-1.657353	-170.702373
5.850000	-1.622614	-172.434685	-6.171474	97.296454	-6.171474	97.296454	-1.622567	-172.414913
5.900000	-1.589429	-174.135923	-6.274050	95.568352	-6.274050	95.568352	-1.589382	-174.115837
5.950000	-1.557772	-175.825929	-6.375320	93.851587	-6.375320	93.851587	-1.557726	-175.805528
6.000000	-1.527576	-177.505081	-6.475255	92.145801	-6.475255	92.145801	-1.527530	-177.484364
6.050000	-1.498773	-179.173750	-6.573829	90.450641	-6.573829	90.450641	-1.498728	-179.152718
6.100000	-1.471303	179.167698	-6.671020	88.765759	-6.671020	88.765759	-1.471259	179.189045
6.150000	-1.445105	177.518904	-6.766805	87.090813	-6.766805	87.090813	-1.445062	177.540567
6.200000	-1.420124	175.879516	-6.861164	85.425468	-6.861164	85.425468	-1.420080	175.901495
6.250000	-1.396304	174.249190	-6.954079	83.769392	-6.954079	83.769392	-1.396261	174.271484
6.300000	-1.373616	172.627768	-7.045481	82.122447	-7.045481	82.122447	-1.373575	172.650379
6.350000	-1.351988	171.014724	-7.135410	80.484116	-7.135410	80.484116	-1.351948	171.037650
6.400000	-1.331373	169.409733	-7.223851	78.854085	-7.223851	78.854085	-1.331333	169.432976
6.450000	-1.311726	167.812479	-7.310794	77.232050	-7.310794	77.232050	-1.311687	167.836039
6.500000	-1.293004	166.222653	-7.396227	75.617712	-7.396227	75.617712	-1.292967	166.246529
6.550000	-1.275167	164.639951	-7.480142	74.010778	-7.480142	74.010778	-1.275130	164.664143
6.600000	-1.258175	163.064078	-7.562531	72.410963	-7.562531	72.410963	-1.258140	163.088586
6.650000	-1.241992	161.494743	-7.643387	70.817985	-7.643387	70.817985	-1.241957	161.519567
6.700000	-1.226651	159.932252	-7.722483	69.232192	-7.722483	69.232192	-1.226617	159.957392
6.750000	-1.211982	158.375187	-7.800235	67.652115	-7.800235	67.652115	-1.211950	158.400642
6.800000	-1.198018	156.823824	-7.876440	66.078069	-7.876440	66.078069	-1.197987	156.849594
6.850000	-1.184727	155.277899	-7.951095	64.509799	-7.951095	64.509799	-1.184698	155.303985
6.900000	-1.172080	153.737155	-8.024198	62.947056	-8.024198	62.947056	-1.172051	153.763555
6.950000	-1.160046	152.201339	-8.095747	61.389597	-8.095747	61.389597	-1.160020	152.228052
7.000000	-1.148600	150.670203	-8.165742	59.837184	-8.165742	59.837184	-1.148575	150.697229
7.050000	-1.137714	149.143506	-8.234183	58.289586	-8.234183	58.289586	-1.137690	149.170844
7.100000	-1.127362	147.621012	-8.301069	56.746576	-8.301069	56.746576	-1.127340	147.648661
7.150000	-1.117522	146.102490	-8.366403	55.207934	-8.366403	55.207934	-1.117501	146.130450
7.200000	-1.108168	144.587715	-8.430186	53.673446	-8.430186	53.673446	-1.108149	144.615985
7.250000	-1.099280	143.076466	-8.492419	52.142900	-8.492419	52.142900	-1.099263	143.105045
7.300000	-1.090836	141.568528	-8.553107	50.616092	-8.553107	50.616092	-1.090821	141.597414
7.350000	-1.082816	140.063690	-8.612251	49.092822	-8.612251	49.092822	-1.082802	140.092882
7.400000	-1.075201	138.561748	-8.669855	47.572895	-8.669855	47.572895	-1.075189	138.591244
7.450000	-1.067972	137.062499	-8.725923	46.056122	-8.725923	46.056122	-1.067962	137.092299
7.500000	-1.061112	135.565749	-8.780459	44.542316	-8.780459	44.542316	-1.061103	135.595850
7.550000	-1.054619	134.071398	-8.833388	43.031410	-8.833388	43.031410	-1.054612	134.101799
7.600000	-1.048461	132.579153	-8.884797	41.523100	-8.884797	41.523100	-1.048457	132.609852
7.650000	-1.042625	131.088833	-8.934691	40.017213	-8.934691	40.017213	-1.042622	131.119828
7.700000	-1.037096	129.600263	-8.983075	38.513583	-8.983075	38.513583	-1.037096	129.631552
7.750000	-1.031862	128.113273	-9.029954	37.012048	-9.029954	37.012048	-1.031864	128.144854
7.800000	-1.026910	126.627698	-9.075336	35.512449	-9.075336	35.512449	-1.026914	126.659568
7.850000	-1.022231	125.143377	-9.119224	34.014631	-9.119224	34.014631	-1.022237	125.175535
7.900000	-1.017812	123.660157	-9.161627	32.518444	-9.161627	32.518444	-1.017821	123.692599
7.950000	-1.013646	122.177888	-9.202550	31.023742	-9.202550	31.023742	-1.013657	122.210612
8.000000	-1.009723	120.696427	-9.242000	29.530381	-9.242000	29.530381	-1.009736	120.729429
8.050000	-1.006036	119.215635	-9.279983	28.038222	-9.279983	28.038222	-1.006052	119.248913
8.100000	-1.002577	117.735379	-9.316507	26.547131	-9.316507	26.547131	-1.002595	117.768930
8.150000	-0.999340	116.255535	-9.351578	25.056975	-9.351578	25.056975	-0.999361	116.289355
8.200000	-0.996320	114.775980	-9.385204	23.567627	-9.385204	23.567627	-0.996344	114.810067
8.250000	-0.993513	113.296602	-9.417392	22.078962	-9.417392	22.078962	-0.993539	113.330951
8.300000	-0.990914	111.817291	-9.448149	20.590859	-9.448149	20.590859	-0.990943	111.851899
8.350000	-0.988519	110.337946	-9.477483	19.103201	-9.477483	19.103201	-0.988551	110.372809
8.400000	-0.986327	108.858471	-9.505402	17.615874	-9.505402	17.615874	-0.986361	108.893586
8.450000	-0.984335	107.378779	-9.531912	16.128767	-9.531912	16.128767	-0.984372	107.414141
8.500000	-0.982542	105.898788	-9.557022	14.641774	-9.557022	14.641774	-0.982583	105.934392
8.550000	-0.980948	104.418423	-9.580739	13.154790	-9.580739	13.154790	-0.980991	104.454264
8.600000	-0.979553	102.937615	-9.603072	11.667715	-9.603072	11.667715	-0.979599	102.973690
8.650000	-0.978356	101.456305	-9.624028	10.180452	-9.624028	10.180452	-0.978405	101.492608
8.700000	-0.977360	99.974438	-9.643615	8.692908	-9.643615	8.692908	-0.977412	100.010965
8.750000	-0.976566	98.491969	-9.661840	7.204993	-9.661840	7.204993	-0.976620	98.528715
8.800000	-0.975985	97.008830	-9.678653	5.716594	-9.678653	5.716594	-0.976042	97.045788
8.850000	-0.975610	95.525016	-9.694123	4.227647	-9.694123	4.227647	-0.975671	95.562181
8.900000	-0.975446	94.040506	-9.708256	2.738070	-9.708256	2.738070	-0.975510	94.077872
8.950000	-0.975496	92.555283	-9.721062	1.247789	-9.721062	1.247789	-0.975562	92.592844
9.000000	-0.975763	91.069340	-9.732547	-0.243271	-9.732547	-0.243271	-0.975832	91.107091
9.050000	-0.976252	89.582679	-9.742721	-1.735177	-9.742721	-1.735177	-0.976324	89.620611
9.100000	-0.976967	88.095306	-9.751592	-3.227996	-9.751592	-3.227996	-0.977043	88.133414
9.150000	-0.977914	86.607237	-9.759166	-4.721791	-9.759166	-4.721791	-0.977992	86.645515
9.200000	-0.979096	85.118495	-9.765453	-6.216619	-9.765453	-6.216619	-0.979178	85.156936
9.250000	-0.980521	83.629111	-9.770460	-7.712537	-9.770460	-7.712537	-0.980605	83.667707
9.300000	-0.982192	82.139124	-9.774195	-9.209594	-9.774195	-9.209594	-0.982280	82.177868
9.350000	-0.984116	80.648579	-9.776666	-10.707840	-9.776666	-10.707840	-0.984207	80.687463
9.400000	-0.986299	79.157529	-9.777881	-12.207318	-9.777881	-12.207318	-0.986393	79.196547
9.450000	-0.988746	77.666035	-9.777849	-13.708067	-9.777849	-13.708067	-0.988843	77.705178
9.500000	-0.991463	76.174165	-9.776576	-15.210126	-9.776576	-15.210126	-0.991563	76.213425
9.550000	-0.994456	74.681993	-9.774070	-16.713524	-9.774070	-16.713524	-0.994559	74.721362
9.600000	-0.997730	73.189601	-9.770340	-18.218292	-9.770340	-18.218292	-0.997836	73.229071
9.650000	-1.001292	71.697079	-9.765392	-19.724453	-9.765392	-19.724453	-1.001401	71.736640
9.700000	-1.005147	70.204520	-9.759236	-21.232027	-9.759236	-21.232027	-1.005260	70.244164
9.750000	-1.009302	68.712026	-9.751877	-22.741031	-9.751877	-22.741031	-1.009417	68.751746
9.800000	-1.013760	67.219706	-9.743324	-24.251476	-9.743324	-24.251476	-1.013879	67.259491
9.850000	-1.018528	65.727674	-9.733583	-25.763369	-9.733583	-25.763369	-1.018650	65.767515
9.900000	-1.023611	64.236048	-9.722663	-27.276713	-9.722663	-27.276713	-1.023736	64.275937
9.950000	-1.029013	62.744955	-9.710570	-28.791507	-9.710570	-28.791507	-1.029142	62.784883
10.000000	-1.034739	61.254526	-9.697311	-30.307745	-9.697311	-30.307745	-1.034871	61.294482
