! freq	dB(S11)	phase(S11)	dB(S12)	phase(S12)	
!     	dB(S21)	phase(S21)	dB(S22)	phase(S22)	
!S-par simulation data
#  GHz  S  DB  R 50
0.000000	-80.887580	0.000000	-0.000784	0.000000	-0.000784	0.000000	-80.887580	0.000000
0.050000	-54.504104	-89.965966	-0.001647	-2.645027	-0.001647	-2.645027	-54.544413	-89.942510
0.100000	-48.509431	-94.087125	-0.004052	-5.286632	-0.004052	-5.286632	-48.547767	-94.051043
0.150000	-45.019198	-97.299929	-0.007550	-7.922831	-0.007550	-7.922831	-45.054301	-97.229479
0.200000	-42.562859	-100.297476	-0.011654	-10.553311	-0.011654	-10.553311	-42.593694	-100.165444
0.250000	-40.678360	-103.225556	-0.015964	-13.179000	-0.015964	-13.179000	-40.704170	-102.996725
0.300000	-39.159560	-106.135940	-0.020221	-15.801327	-0.020221	-15.801327	-39.179942	-105.766772
0.350000	-37.896261	-109.053335	-0.024293	-18.421691	-0.024293	-18.421691	-37.911233	-108.492121
0.400000	-36.822492	-111.991843	-0.028133	-21.041224	-0.028133	-21.041224	-36.832530	-111.179056
0.450000	-35.895871	-114.960723	-0.031740	-23.660757	-0.031740	-23.660757	-35.901889	-113.828702
0.500000	-35.087048	-117.965893	-0.035138	-26.280865	-0.035138	-26.280865	-35.090310	-116.439967
0.550000	-34.375118	-121.011547	-0.038361	-28.901922	-0.038361	-28.901922	-34.377061	-119.009928
0.600000	-33.744907	-124.101481	-0.041443	-31.524183	-0.041443	-31.524183	-33.746937	-121.533971
0.650000	-33.185084	-127.239833	-0.044413	-34.147830	-0.044413	-34.147830	-33.188394	-124.006026
0.700000	-32.687033	-130.431797	-0.047298	-36.773005	-0.047298	-36.773005	-32.692475	-126.418526
0.750000	-32.244067	-133.684109	-0.050120	-39.399826	-0.050120	-39.399826	-32.252134	-128.762356
0.800000	-31.850866	-137.005284	-0.052898	-42.028410	-0.052898	-42.028410	-31.861779	-131.026900
0.850000	-31.504063	-140.408733	-0.055645	-44.658938	-0.055645	-44.658938	-31.517981	-133.196712
0.900000	-31.198265	-143.902049	-0.058376	-47.291426	-0.058376	-47.291426	-31.215502	-135.264103
0.950000	-30.930863	-147.500834	-0.061098	-49.926050	-0.061098	-49.926050	-30.952156	-137.213404
1.000000	-30.698821	-151.220489	-0.063820	-52.562954	-0.063820	-52.562954	-30.725500	-139.030526
1.050000	-30.499209	-155.077947	-0.066549	-55.202295	-0.066549	-55.202295	-30.533295	-140.700797
1.100000	-30.329064	-159.091632	-0.069289	-57.844242	-0.069289	-57.844242	-30.373281	-142.208576
1.150000	-30.185253	-163.281374	-0.072047	-60.488980	-0.072047	-60.488980	-30.242997	-143.536734
1.200000	-30.064328	-167.668223	-0.074826	-63.136704	-0.074826	-63.136704	-30.139610	-144.666190
1.250000	-29.962366	-172.274084	-0.077631	-65.787625	-0.077631	-65.787625	-30.059771	-145.575708
1.300000	-29.874976	-177.126802	-0.080470	-68.442047	-0.080470	-68.442047	-29.999751	-146.236233
1.350000	-29.796323	177.757245	-0.083346	-71.100138	-0.083346	-71.100138	-29.954071	-146.628044
1.400000	-29.719987	172.359537	-0.086269	-73.762147	-0.086269	-73.762147	-29.916662	-146.726899
1.450000	-29.638484	166.666399	-0.089245	-76.428340	-0.089245	-76.428340	-29.880173	-146.510995
1.500000	-29.543933	160.679956	-0.092283	-79.098862	-0.092283	-79.098862	-29.836322	-145.973268
1.550000	-29.426151	154.389895	-0.095398	-81.774224	-0.095398	-81.774224	-29.774490	-145.090112
1.600000	-29.275217	147.819452	-0.098604	-84.454670	-0.098604	-84.454670	-29.683185	-143.873018
1.650000	-29.081526	141.006128	-0.101916	-87.140489	-0.101916	-87.140489	-29.550504	-142.349873
1.700000	-28.836623	134.003594	-0.105352	-89.831987	-0.105352	-89.831987	-29.365033	-140.569403
1.750000	-28.534011	126.880035	-0.108935	-92.529494	-0.108935	-92.529494	-29.116940	-138.601648
1.800000	-28.170069	119.714187	-0.112689	-95.233349	-0.112689	-95.233349	-28.799372	-136.535315
1.850000	-27.744512	112.588424	-0.116641	-97.943896	-0.116641	-97.943896	-28.409480	-134.470170
1.900000	-27.259924	105.582046	-0.120825	-100.661529	-0.120825	-100.661529	-27.948329	-132.507785
1.950000	-26.722169	98.763264	-0.125276	-103.386611	-0.125276	-103.386611	-27.421591	-130.740109
2.000000	-26.139537	92.182676	-0.130033	-106.119465	-0.130033	-106.119465	-26.838592	-129.238626
2.050000	-25.520832	85.874321	-0.135137	-108.860454	-0.135137	-108.860454	-26.209892	-128.053301
2.100000	-24.874945	79.855928	-0.140638	-111.609940	-0.140638	-111.609940	-25.546506	-127.212126
2.150000	-24.210207	74.131430	-0.146588	-114.368287	-0.146588	-114.368287	-24.858891	-126.724088
2.200000	-23.533834	68.694937	-0.153045	-117.135878	-0.153045	-117.135878	-24.156148	-126.584448
2.250000	-22.851819	63.533703	-0.160076	-119.913122	-0.160076	-119.913122	-23.445804	-126.778986
2.300000	-22.169764	58.626792	-0.167745	-122.700289	-0.167745	-122.700289	-22.734713	-127.282938
2.350000	-21.491693	53.953381	-0.176123	-125.497710	-0.176123	-125.497710	-22.027759	-128.071497
2.400000	-20.820706	49.491974	-0.185290	-128.305706	-0.185290	-128.305706	-21.328628	-129.119116
2.450000	-20.159131	45.221462	-0.195330	-131.124578	-0.195330	-131.124578	-20.640021	-130.400894
2.500000	-19.508668	41.121777	-0.206331	-133.954608	-0.206331	-133.954608	-19.963854	-131.893397
2.550000	-18.870165	37.175715	-0.218402	-136.796184	-0.218402	-136.796184	-19.301057	-133.576907
2.600000	-18.244849	33.364383	-0.231634	-139.649414	-0.231634	-139.649414	-18.652911	-135.429691
2.650000	-17.633238	29.672359	-0.246134	-142.514500	-0.246134	-142.514500	-18.019909	-137.434331
2.700000	-17.035629	26.085780	-0.262014	-145.391608	-0.262014	-145.391608	-17.402288	-139.575320
2.750000	-16.452155	22.592250	-0.279391	-148.280864	-0.279391	-148.280864	-16.800107	-141.838899
2.800000	-15.882833	19.180727	-0.298390	-151.182354	-0.298390	-151.182354	-16.213295	-144.212881
2.850000	-15.327427	15.841917	-0.319152	-154.096215	-0.319152	-154.096215	-15.641519	-146.687202
2.900000	-14.785954	12.566631	-0.341805	-157.022365	-0.341805	-157.022365	-15.084714	-149.251635
2.950000	-14.258310	9.347012	-0.366480	-159.960700	-0.366480	-159.960700	-14.542692	-151.897430
3.000000	-13.744309	6.176296	-0.393318	-162.911087	-0.393318	-162.911087	-14.015184	-154.617025
3.050000	-13.243812	3.048367	-0.422454	-165.873283	-0.422454	-165.873283	-13.501979	-157.403394
3.100000	-12.756458	-0.041607	-0.454061	-168.847152	-0.454061	-168.847152	-13.002633	-160.251102
3.150000	-12.282122	-3.098426	-0.488280	-171.832303	-0.488280	-171.832303	-12.516961	-163.154310
3.200000	-11.820621	-6.126127	-0.525261	-174.828322	-0.525261	-174.828322	-12.044719	-166.107952
3.250000	-11.371807	-9.128270	-0.565148	-177.834686	-0.565148	-177.834686	-11.585705	-169.107272
3.300000	-10.935486	-12.107806	-0.608097	179.149162	-0.608097	179.149162	-11.139672	-172.148094
3.350000	-10.511451	-15.067201	-0.654273	176.123830	-0.654273	176.123830	-10.706365	-175.226643
3.400000	-10.099677	-18.008906	-0.703775	173.090198	-0.703775	173.090198	-10.285724	-178.338658
3.450000	-9.699935	-20.934528	-0.756773	170.049005	-0.756773	170.049005	-9.877476	178.519006
3.500000	-9.312065	-23.845469	-0.813421	167.001142	-0.813421	167.001142	-9.481426	175.349570
3.550000	-8.935990	-26.743010	-0.873820	163.947665	-0.873820	163.947665	-9.097467	172.156453
3.600000	-8.571580	-29.628022	-0.938090	160.889653	-0.938090	160.889653	-8.725442	168.942706
3.650000	-8.218709	-32.501122	-1.006342	157.828260	-1.006342	157.828260	-8.365199	165.711280
3.700000	-7.877252	-35.362694	-1.078675	154.764716	-1.078675	154.764716	-8.016590	162.465039
3.750000	-7.547084	-38.212914	-1.155176	151.700316	-1.155176	151.700316	-7.679469	159.206772
3.800000	-7.228075	-41.051639	-1.235960	148.636440	-1.235960	148.636440	-7.353685	155.939132
3.850000	-6.920111	-43.878800	-1.321049	145.574514	-1.321049	145.574514	-7.039110	152.664914
3.900000	-6.623055	-46.694057	-1.410488	142.515997	-1.410488	142.515997	-6.735593	149.386721
3.950000	-6.336762	-49.496936	-1.504308	139.462388	-1.504308	139.462388	-6.442976	146.107104
4.000000	-6.061081	-52.286853	-1.602523	136.415212	-1.602523	136.415212	-6.161098	142.828555
4.050000	-5.795852	-55.063132	-1.705130	133.376012	-1.705130	133.376012	-5.889788	139.553508
4.100000	-5.540929	-57.824894	-1.812134	130.346430	-1.812134	130.346430	-5.628890	136.284400
4.150000	-5.296125	-60.571394	-1.923480	127.327982	-1.923480	127.327982	-5.378211	133.023533
4.200000	-5.061242	-63.301817	-2.039105	124.322176	-2.039105	124.322176	-5.137547	129.773117
4.250000	-4.836079	-66.015284	-2.158939	121.330519	-2.158939	121.330519	-4.906693	126.535300
4.300000	-4.620425	-68.710907	-2.282895	118.354484	-2.282895	118.354484	-4.685433	123.312144
4.350000	-4.414060	-71.387801	-2.410871	115.395500	-2.410871	115.395500	-4.473543	120.105619
4.400000	-4.216780	-74.044987	-2.542759	112.455050	-2.542759	112.455050	-4.270815	116.917710
4.450000	-4.028349	-76.681610	-2.678426	109.534470	-2.678426	109.534470	-4.077011	113.750218
4.500000	-3.848497	-79.296979	-2.817715	106.634901	-2.817715	106.634901	-3.891860	110.604705
4.550000	-3.676972	-81.890339	-2.960474	103.757513	-2.960474	103.757513	-3.715107	107.482725
4.600000	-3.513516	-84.460996	-3.106536	100.903392	-3.106536	100.903392	-3.546494	104.385716
4.650000	-3.357866	-87.008312	-3.255727	98.073542	-3.255727	98.073542	-3.385757	101.315007
4.700000	-3.209929	-89.530855	-3.407867	95.269797	-3.407867	95.269797	-3.232798	98.272819
4.750000	-3.069119	-92.029700	-3.562753	92.491315	-3.562753	92.491315	-3.087037	95.258421
4.800000	-2.935314	-94.503706	-3.720202	89.739582	-3.720202	89.739582	-2.948349	92.273615
4.850000	-2.808246	-96.952517	-3.880017	87.015239	-3.880017	87.015239	-2.816463	89.319268
4.900000	-2.687647	-99.375854	-4.041998	84.318836	-4.041998	84.318836	-2.691114	86.396136
4.950000	-2.573255	-101.773507	-4.205946	81.650836	-4.205946	81.650836	-2.572037	83.504870
5.000000	-2.464809	-104.145339	-4.371658	79.011614	-4.371658	79.011614	-2.458971	80.646016
5.050000	-2.362128	-106.490812	-4.538900	76.401991	-4.538900	76.401991	-2.351735	77.820625
5.100000	-2.264880	-108.810393	-4.707499	73.821651	-4.707499	73.821651	-2.249996	75.028459
5.150000	-2.172818	-111.104146	-4.877260	71.270722	-4.877260	71.270722	-2.153507	72.269777
5.200000	-2.085701	-113.372192	-5.047991	68.749261	-5.047991	68.749261	-2.062028	69.544757
5.250000	-2.003297	-115.614706	-5.219503	66.257256	-5.219503	66.257256	-1.975324	66.853499
5.300000	-1.925379	-117.831915	-5.391614	63.794630	-5.391614	63.794630	-1.893170	64.196028
5.350000	-1.851727	-120.024092	-5.564145	61.361249	-5.564145	61.361249	-1.815345	61.572305
5.400000	-1.782133	-122.191553	-5.736924	58.956921	-5.736924	58.956921	-1.741639	58.982228
5.450000	-1.716421	-124.334420	-5.909748	56.581682	-5.909748	56.581682	-1.671878	56.425963
5.500000	-1.654379	-126.453207	-6.082472	54.235101	-6.082472	54.235101	-1.605848	53.903132
5.550000	-1.595802	-128.548450	-6.254957	51.916711	-6.254957	51.916711	-1.543345	51.413318
5.600000	-1.540606	-130.619833	-6.426921	49.627071	-6.426921	49.627071	-1.484285	48.957317
5.650000	-1.488427	-132.669359	-6.598487	47.363922	-6.598487	47.363922	-1.428303	46.532600
5.700000	-1.439112	-134.697484	-6.769530	45.126870	-6.769530	45.126870	-1.375246	44.138827
5.750000	-1.392682	-136.703217	-6.939644	42.917283	-6.939644	42.917283	-1.325136	41.777766
5.800000	-1.348898	-138.687828	-7.108844	40.733774	-7.108844	40.733774	-1.277733	39.447913
5.850000	-1.307756	-140.650584	-7.276738	38.577425	-7.276738	38.577425	-1.233036	37.150731
5.900000	-1.268770	-142.595231	-7.443913	36.443721	-7.443913	36.443721	-1.190554	34.880921
5.950000	-1.232193	-144.518770	-7.609481	34.336581	-7.609481	34.336581	-1.150547	32.643388
6.000000	-1.197630	-146.424356	-7.773941	32.252182	-7.773941	32.252182	-1.112616	30.433636
6.050000	-1.165115	-148.311086	-7.936859	30.191829	-7.936859	30.191829	-1.076797	28.253425
6.100000	-1.134504	-150.179859	-8.098231	28.154529	-8.098231	28.154529	-1.042946	26.101699
6.150000	-1.105626	-152.031895	-8.258155	26.138864	-8.258155	26.138864	-1.010893	23.976868
6.200000	-1.078543	-153.866095	-8.416110	24.146420	-8.416110	24.146420	-0.980704	21.881081
6.250000	-1.052923	-155.685537	-8.572735	22.173328	-8.572735	22.173328	-0.952040	19.809652
6.300000	-1.028990	-157.487376	-8.726985	20.223492	-8.726985	20.223492	-0.925139	17.767694
6.350000	-1.006361	-159.275440	-8.879775	18.291998	-8.879775	18.291998	-0.899606	15.749142
6.400000	-0.985165	-161.047931	-9.030337	16.381402	-9.030337	16.381402	-0.875581	13.757442
6.450000	-0.965207	-162.806757	-9.179057	14.489291	-9.179057	14.489291	-0.852864	11.789666
6.500000	-0.946462	-164.551883	-9.325711	12.615871	-9.325711	12.615871	-0.831435	9.846259
6.550000	-0.928888	-166.283548	-9.470162	10.760973	-9.470162	10.760973	-0.811253	7.927184
6.600000	-0.912339	-168.003231	-9.612716	8.922712	-9.612716	8.922712	-0.792171	6.030134
6.650000	-0.896894	-169.709738	-9.752725	7.102915	-9.752725	7.102915	-0.774276	4.157727
6.700000	-0.882345	-171.405413	-9.890848	5.298451	-9.890848	5.298451	-0.757353	2.305957
6.750000	-0.868738	-173.089500	-10.026592	3.510545	-10.026592	3.510545	-0.741457	0.476647
6.800000	-0.855996	-174.762791	-10.160054	1.738237	-10.160054	1.738237	-0.726510	-1.331319
6.850000	-0.844073	-176.425724	-10.291204	-0.018944	-10.291204	-0.018944	-0.712468	-3.118400
6.900000	-0.832932	-178.078626	-10.419970	-1.761304	-10.419970	-1.761304	-0.699297	-4.884835
6.950000	-0.822529	-179.721932	-10.546327	-3.489308	-10.546327	-3.489308	-0.686957	-6.631086
7.000000	-0.812819	178.643840	-10.670300	-5.203556	-10.670300	-5.203556	-0.675401	-8.357813
7.050000	-0.803764	177.018289	-10.791867	-6.904480	-10.791867	-6.904480	-0.664595	-10.065448
7.100000	-0.795328	175.401024	-10.911009	-8.592501	-10.911009	-8.592501	-0.654506	-11.754414
7.150000	-0.787478	173.791664	-11.027709	-10.268029	-11.027709	-10.268029	-0.645102	-13.425127
7.200000	-0.780184	172.189835	-11.141950	-11.931467	-11.141950	-11.931467	-0.636355	-15.077996
7.250000	-0.773416	170.595174	-11.253719	-13.583208	-11.253719	-13.583208	-0.628237	-16.713423
7.300000	-0.767166	169.007601	-11.362836	-15.223163	-11.362836	-15.223163	-0.620748	-18.331082
7.350000	-0.761361	167.426140	-11.469664	-16.852777	-11.469664	-16.852777	-0.613807	-19.932989
7.400000	-0.756003	165.850818	-11.573982	-18.471806	-11.573982	-18.471806	-0.607424	-21.518605
7.450000	-0.751068	164.281304	-11.675781	-20.080605	-11.675781	-20.080605	-0.601576	-23.088301
7.500000	-0.746535	162.717279	-11.775053	-21.679522	-11.775053	-21.679522	-0.596245	-24.642444
7.550000	-0.742396	161.158642	-11.871634	-23.268496	-11.871634	-23.268496	-0.591432	-26.180747
7.600000	-0.738617	159.604850	-11.965678	-24.848285	-11.965678	-24.848285	-0.587097	-27.704239
7.650000	-0.735176	158.055609	-12.057179	-26.419211	-12.057179	-26.419211	-0.583224	-29.213265
7.700000	-0.732058	156.510631	-12.146133	-27.981586	-12.146133	-27.981586	-0.579798	-30.708163
7.750000	-0.729246	154.969638	-12.232535	-29.535715	-12.232535	-29.535715	-0.576803	-32.189266
7.800000	-0.726723	153.432356	-12.316381	-31.081898	-12.316381	-31.081898	-0.574228	-33.656900
7.850000	-0.724475	151.898522	-12.397668	-32.620423	-12.397668	-32.620423	-0.572058	-35.111386
7.900000	-0.722488	150.367878	-12.476394	-34.151577	-12.476394	-34.151577	-0.570283	-36.553039
7.950000	-0.720749	148.840174	-12.552557	-35.675636	-12.552557	-35.675636	-0.568892	-37.982170
8.000000	-0.719247	147.315168	-12.626156	-37.192871	-12.626156	-37.192871	-0.567874	-39.399082
8.050000	-0.717968	145.792623	-12.697190	-38.703548	-12.697190	-38.703548	-0.567220	-40.804076
8.100000	-0.716903	144.272310	-12.765658	-40.207926	-12.765658	-40.207926	-0.566920	-42.197445
8.150000	-0.716042	142.754006	-12.831560	-41.706260	-12.831560	-41.706260	-0.566969	-43.579481
8.200000	-0.715374	141.237498	-12.894897	-43.198798	-12.894897	-43.198798	-0.567356	-44.950468
8.250000	-0.714892	139.722575	-12.955669	-44.685786	-12.955669	-44.685786	-0.568077	-46.310687
8.300000	-0.714587	138.209035	-13.013878	-46.167462	-13.013878	-46.167462	-0.569124	-47.660416
8.350000	-0.714452	136.696684	-13.069524	-47.644062	-13.069524	-47.644062	-0.570491	-48.999928
8.400000	-0.714480	135.185331	-13.122610	-49.115818	-13.122610	-49.115818	-0.572175	-50.329491
8.450000	-0.714664	133.674793	-13.173137	-50.582958	-13.173137	-50.582958	-0.574169	-51.649370
8.500000	-0.714999	132.164896	-13.221108	-52.045707	-13.221108	-52.045707	-0.576471	-52.959829
8.550000	-0.715480	130.655469	-13.266526	-53.504287	-13.266526	-53.504287	-0.579075	-54.261125
8.600000	-0.716100	129.146348	-13.309393	-54.958918	-13.309393	-54.958918	-0.581980	-55.553513
8.650000	-0.716858	127.637376	-13.349712	-56.409816	-13.349712	-56.409816	-0.585183	-56.837247
8.700000	-0.717748	126.128403	-13.387486	-57.857198	-13.387486	-57.857198	-0.588680	-58.112575
8.750000	-0.718767	124.619285	-13.422720	-59.301277	-13.422720	-59.301277	-0.592471	-59.379745
8.800000	-0.719918	123.109864	-13.455302	-60.742140	-13.455302	-60.742140	-0.596567	-60.638668
8.850000	-0.721193	121.600017	-13.485353	-62.180144	-13.485353	-62.180144	-0.600953	-61.889941
8.900000	-0.722590	120.089619	-13.512877	-63.615500	-13.512877	-63.615500	-0.605631	-63.133803
8.950000	-0.724108	118.578552	-13.537878	-65.048419	-13.537878	-65.048419	-0.610599	-64.370491
9.000000	-0.725746	117.066705	-13.560362	-66.479111	-13.560362	-66.479111	-0.615859	-65.600241
9.050000	-0.727503	115.553972	-13.580334	-67.907791	-13.580334	-67.907791	-0.621410	-66.823288
9.100000	-0.729379	114.040255	-13.597797	-69.334670	-13.597797	-69.334670	-0.627255	-68.039862
9.150000	-0.731374	112.525462	-13.612758	-70.759964	-13.612758	-70.759964	-0.633395	-69.250195
9.200000	-0.733488	111.009508	-13.625223	-72.183888	-13.625223	-72.183888	-0.639832	-70.454516
9.250000	-0.735723	109.492313	-13.635197	-73.606662	-13.635197	-73.606662	-0.646569	-71.653055
9.300000	-0.738081	107.973805	-13.642687	-75.028508	-13.642687	-75.028508	-0.653608	-72.846038
9.350000	-0.740562	106.453917	-13.647699	-76.449649	-13.647699	-76.449649	-0.660953	-74.033691
9.400000	-0.743168	104.932593	-13.650241	-77.870314	-13.650241	-77.870314	-0.668609	-75.216242
9.450000	-0.745903	103.409777	-13.650321	-79.290734	-13.650321	-79.290734	-0.676578	-76.393915
9.500000	-0.748768	101.885426	-13.647945	-80.711145	-13.647945	-80.711145	-0.684867	-77.566935
9.550000	-0.751767	100.359501	-13.643122	-82.131789	-13.643122	-82.131789	-0.693480	-78.735528
9.600000	-0.754903	98.831969	-13.635862	-83.552912	-13.635862	-83.552912	-0.702423	-79.899918
9.650000	-0.758179	97.302805	-13.626172	-84.974764	-13.626172	-84.974764	-0.711702	-81.060329
9.700000	-0.761600	95.771991	-13.614063	-86.397605	-13.614063	-86.397605	-0.721324	-82.216988
9.750000	-0.765169	94.239516	-13.599546	-87.821697	-13.599546	-87.821697	-0.731296	-83.370118
9.800000	-0.768891	92.705376	-13.582631	-89.247313	-13.582631	-89.247313	-0.741627	-84.519947
9.850000	-0.772770	91.169572	-13.563330	-90.674731	-13.563330	-90.674731	-0.752324	-85.666701
9.900000	-0.776811	89.632115	-13.541655	-92.104238	-13.541655	-92.104238	-0.763396	-86.810607
9.950000	-0.781020	88.093021	-13.517620	-93.536129	-13.517620	-93.536129	-0.774853	-87.951894
10.000000	-0.785402	86.552314	-13.491238	-94.970708	-13.491238	-94.970708	-0.786705	-89.090791
