! freq	dB(S11)	phase(S11)	dB(S12)	phase(S12)	
!     	dB(S21)	phase(S21)	dB(S22)	phase(S22)	
!S-par simulation data
#  GHz  S  DB  R 50
0.000000	-88.506982	0.000000	-0.000326	0.000000	-0.000326	0.000000	-88.506982	0.000000
0.050000	-38.927099	-92.199469	-0.004274	-2.336839	-0.004274	-2.336839	-38.927104	-92.199559
0.100000	-32.970379	-94.774193	-0.009739	-4.644256	-0.009739	-4.644256	-32.970376	-94.774354
0.150000	-29.504736	-97.244718	-0.015325	-6.943362	-0.015325	-6.943362	-29.504732	-97.244963
0.200000	-27.055716	-99.646786	-0.021694	-9.237882	-0.021694	-9.237882	-27.055713	-99.647117
0.250000	-25.165684	-102.008747	-0.029016	-11.527720	-0.029016	-11.527720	-25.165681	-102.009165
0.300000	-23.631249	-104.346896	-0.037252	-13.813007	-0.037252	-13.813007	-23.631245	-104.347401
0.350000	-22.344056	-106.668811	-0.046339	-16.093958	-0.046339	-16.093958	-22.344052	-106.669405
0.400000	-21.240109	-108.977951	-0.056249	-18.370556	-0.056249	-18.370556	-21.240104	-108.978635
0.450000	-20.277009	-111.276934	-0.066899	-20.642964	-0.066899	-20.642964	-20.277004	-111.277708
0.500000	-19.426818	-113.566754	-0.078252	-22.910948	-0.078252	-22.910948	-19.426812	-113.567620
0.550000	-18.668818	-115.848382	-0.090231	-25.174418	-0.090231	-25.174418	-18.668812	-115.849340
0.600000	-17.988293	-118.122159	-0.102774	-27.433074	-0.102774	-27.433074	-17.988287	-118.123209
0.650000	-17.373735	-120.388414	-0.115801	-29.686707	-0.115801	-29.686707	-17.373729	-120.389558
0.700000	-16.816316	-122.647308	-0.129234	-31.935081	-0.129234	-31.935081	-16.816311	-122.648547
0.750000	-16.309174	-124.898895	-0.142991	-34.177952	-0.142991	-34.177952	-16.309168	-124.900230
0.800000	-15.846425	-127.143374	-0.156982	-36.415236	-0.156982	-36.415236	-15.846420	-127.144807
0.850000	-15.423863	-129.380686	-0.171124	-38.646695	-0.171124	-38.646695	-15.423858	-129.382221
0.900000	-15.037185	-131.611162	-0.185327	-40.872445	-0.185327	-40.872445	-15.037180	-131.612801
0.950000	-14.683866	-133.834711	-0.199499	-43.092278	-0.199499	-43.092278	-14.683861	-133.836457
1.000000	-14.360600	-136.051784	-0.213558	-45.306482	-0.213558	-45.306482	-14.360595	-136.053640
1.050000	-14.065678	-138.262419	-0.227408	-47.515011	-0.227408	-47.515011	-14.065673	-138.264389
1.100000	-13.796762	-140.467059	-0.240970	-49.718199	-0.240970	-49.718199	-13.796757	-140.469146
1.150000	-13.552518	-142.665931	-0.254153	-51.916213	-0.254153	-51.916213	-13.552513	-142.668140
1.200000	-13.331379	-144.859466	-0.266879	-54.109420	-0.266879	-54.109420	-13.331374	-144.861801
1.250000	-13.132204	-147.048063	-0.279064	-56.298182	-0.279064	-56.298182	-13.132199	-147.050529
1.300000	-12.954060	-149.232156	-0.290631	-58.482909	-0.290631	-58.482909	-12.954055	-149.234757
1.350000	-12.795892	-151.412285	-0.301512	-60.664125	-0.301512	-60.664125	-12.795886	-151.415028
1.400000	-12.657315	-153.588908	-0.311625	-62.842297	-0.311625	-62.842297	-12.657309	-153.591798
1.450000	-12.537296	-155.762670	-0.320926	-65.018072	-0.320926	-65.018072	-12.537289	-155.765712
1.500000	-12.435951	-157.934076	-0.329325	-67.191996	-0.329325	-67.191996	-12.435944	-157.937278
1.550000	-12.352317	-160.103825	-0.336800	-69.364783	-0.336800	-69.364783	-12.352309	-160.107195
1.600000	-12.286713	-162.272521	-0.343272	-71.537102	-0.343272	-71.537102	-12.286705	-162.276067
1.650000	-12.238532	-164.440864	-0.348727	-73.709689	-0.348727	-73.709689	-12.238524	-164.444595
1.700000	-12.208084	-166.609550	-0.353108	-75.883316	-0.353108	-75.883316	-12.208076	-166.613475
1.750000	-12.195258	-168.779296	-0.356399	-78.058767	-0.356399	-78.058767	-12.195249	-168.783428
1.800000	-12.200261	-170.950837	-0.358577	-80.236857	-0.358577	-80.236857	-12.200252	-170.955188
1.850000	-12.223391	-173.124922	-0.359630	-82.418428	-0.359630	-82.418428	-12.223381	-173.129504
1.900000	-12.265167	-175.302330	-0.359547	-84.604368	-0.359547	-84.604368	-12.265157	-175.307160
1.950000	-12.326143	-177.483838	-0.358334	-86.795573	-0.358334	-86.795573	-12.326133	-177.488934
2.000000	-12.406912	-179.670193	-0.356008	-88.992914	-0.356008	-88.992914	-12.406902	-179.675573
2.050000	-12.508324	178.137848	-0.352594	-91.197300	-0.352594	-91.197300	-12.508314	178.132161
2.100000	-12.631409	175.939539	-0.348122	-93.409646	-0.348122	-93.409646	-12.631399	175.933522
2.150000	-12.777401	173.734159	-0.342637	-95.630876	-0.342637	-95.630876	-12.777391	173.727782
2.200000	-12.947832	171.520995	-0.336188	-97.861941	-0.336188	-97.861941	-12.947823	171.514225
2.250000	-13.144583	169.299348	-0.328834	-100.103835	-0.328834	-100.103835	-13.144574	169.292147
2.300000	-13.369561	167.068702	-0.320658	-102.357393	-0.320658	-102.357393	-13.369552	167.061027
2.350000	-13.625246	164.828563	-0.311745	-104.623518	-0.311745	-104.623518	-13.625237	164.820363
2.400000	-13.914602	162.578550	-0.302194	-106.903095	-0.302194	-106.903095	-13.914593	162.569762
2.450000	-14.241194	160.318430	-0.292114	-109.196989	-0.292114	-109.196989	-14.241187	160.308982
2.500000	-14.609347	158.048171	-0.281625	-111.506037	-0.281625	-111.506037	-14.609340	158.037977
2.550000	-15.024684	155.767914	-0.270859	-113.831222	-0.270859	-113.831222	-15.024678	155.756862
2.600000	-15.493463	153.478397	-0.259967	-116.173138	-0.259967	-116.173138	-15.493459	153.466354
2.650000	-16.023923	151.180788	-0.249105	-118.532497	-0.249105	-118.532497	-16.023922	151.167584
2.700000	-16.626597	148.877029	-0.238445	-120.909953	-0.238445	-120.909953	-16.626599	148.862445
2.750000	-17.315232	146.570232	-0.228168	-123.306094	-0.228168	-123.306094	-17.315238	146.553979
2.800000	-18.108239	144.265338	-0.218466	-125.721439	-0.218466	-125.721439	-18.108252	144.247025
2.850000	-19.031468	141.970493	-0.209553	-128.156586	-0.209553	-128.156586	-19.031490	141.949564
2.900000	-20.121344	139.699276	-0.201642	-130.611774	-0.201642	-130.611774	-20.121382	139.674915
2.950000	-21.433157	137.475612	-0.194956	-133.087193	-0.194956	-133.087193	-21.433223	137.446548
3.000000	-23.056704	135.345682	-0.189727	-135.582976	-0.189727	-135.582976	-23.056820	135.309777
3.050000	-25.152229	133.410589	-0.186198	-138.099135	-0.186198	-138.099135	-25.152452	133.363807
3.100000	-28.051113	131.940605	-0.184615	-140.635561	-0.184615	-140.635561	-28.051618	131.873869
3.150000	-32.641833	132.004017	-0.185244	-143.192115	-0.185244	-143.192115	-32.643501	131.888588
3.200000	-43.309191	146.560712	-0.188342	-145.768399	-0.188342	-145.768399	-43.332500	146.170560
3.250000	-38.819185	-73.011194	-0.194155	-148.363766	-0.194155	-148.363766	-38.828295	-72.764663
3.300000	-30.678245	-67.162420	-0.202936	-150.977523	-0.202936	-150.977523	-30.679749	-67.064534
3.350000	-26.431464	-67.806104	-0.214936	-153.608823	-0.214936	-153.608823	-26.432086	-67.745110
3.400000	-23.526722	-69.560168	-0.230399	-156.256662	-0.230399	-156.256662	-23.527070	-69.515823
3.450000	-21.308629	-71.713451	-0.249572	-158.919918	-0.249572	-158.919918	-21.308857	-71.678580
3.500000	-19.510151	-74.059828	-0.272702	-161.597331	-0.272702	-161.597331	-19.510315	-74.031067
3.550000	-17.996451	-76.515596	-0.299969	-164.287307	-0.299969	-164.287307	-17.996575	-76.491120
3.600000	-16.689530	-79.041072	-0.331567	-166.988238	-0.331567	-166.988238	-16.689628	-79.019769
3.650000	-15.540328	-81.613970	-0.367668	-169.698386	-0.367668	-169.698386	-15.540409	-81.595111
3.700000	-14.515975	-84.220372	-0.408425	-172.415892	-0.408425	-172.415892	-14.516043	-84.203454
3.750000	-13.593366	-86.850773	-0.453965	-175.138797	-0.453965	-175.138797	-13.593424	-86.835437
3.800000	-12.755616	-89.498285	-0.504441	-177.865066	-0.504441	-177.865066	-12.755666	-89.484261
3.850000	-11.990084	-92.157173	-0.559877	179.407477	-0.559877	179.407477	-11.990128	-92.144257
3.900000	-11.286943	-94.822889	-0.620319	176.680996	-0.620319	176.680996	-11.286982	-94.810922
3.950000	-10.638424	-97.491505	-0.685782	173.957679	-0.685782	173.957679	-10.638458	-97.480361
4.000000	-10.038267	-100.159531	-0.756253	171.239719	-0.756253	171.239719	-10.038298	-100.149108
4.050000	-9.481339	-102.823808	-0.831691	168.529291	-0.831691	168.529291	-9.481368	-102.814022
4.100000	-8.963419	-105.481360	-0.912055	165.828628	-0.912055	165.828628	-8.963444	-105.472141
4.150000	-8.480870	-108.129517	-0.997221	163.139781	-0.997221	163.139781	-8.480893	-108.120806
4.200000	-8.030580	-110.765831	-1.087053	160.464719	-1.087053	160.464719	-8.030602	-110.757580
4.250000	-7.609866	-113.388030	-1.181399	157.805339	-1.181399	157.805339	-7.609886	-113.380195
4.300000	-7.216379	-115.994022	-1.280087	155.163429	-1.280087	155.163429	-7.216397	-115.986568
4.350000	-6.848041	-118.581896	-1.382926	152.540650	-1.382926	152.540650	-6.848058	-118.574791
4.400000	-6.503047	-121.149807	-1.489718	149.938650	-1.489718	149.938650	-6.503063	-121.143024
4.450000	-6.179732	-123.696179	-1.600234	147.358835	-1.600234	147.358835	-6.179747	-123.689693
4.500000	-5.876537	-126.219751	-1.714224	144.802324	-1.714224	144.802324	-5.876551	-126.213540
4.550000	-5.592085	-128.719327	-1.831441	142.270199	-1.831441	142.270199	-5.592098	-128.713373
4.600000	-5.325117	-131.193883	-1.951634	139.763388	-1.951634	139.763388	-5.325129	-131.188168
4.650000	-5.074473	-133.642558	-2.074547	137.282672	-2.074547	137.282672	-5.074485	-133.637067
4.700000	-4.839106	-136.064579	-2.199923	134.828760	-2.199923	134.828760	-4.839117	-136.059299
4.750000	-4.618068	-138.459244	-2.327502	132.402297	-2.327502	132.402297	-4.618079	-138.454163
4.800000	-4.410370	-140.826372	-2.457023	130.003419	-2.457023	130.003419	-4.410379	-140.821477
4.850000	-4.215154	-143.165696	-2.588234	127.632354	-2.588234	127.632354	-4.215164	-143.160979
4.900000	-4.031626	-145.477080	-2.720892	125.289208	-2.720892	125.289208	-4.031634	-145.472530
4.950000	-3.859040	-147.760500	-2.854757	122.973980	-2.854757	122.973980	-3.859048	-147.756110
5.000000	-3.696703	-150.016040	-2.989598	120.686567	-2.989598	120.686567	-3.696711	-150.011802
5.050000	-3.544074	-152.243433	-3.125168	118.427222	-3.125168	118.427222	-3.544081	-152.239339
5.100000	-3.400430	-154.443404	-3.261273	116.195210	-3.261273	116.195210	-3.400437	-154.439448
5.150000	-3.265207	-156.616302	-3.397710	113.990176	-3.397710	113.990176	-3.265214	-156.612478
5.200000	-3.137874	-158.762542	-3.534288	111.811703	-3.534288	111.811703	-3.137881	-158.758844
5.250000	-3.017938	-160.882598	-3.670826	109.659318	-3.670826	109.659318	-3.017944	-160.879020
5.300000	-2.904936	-162.976995	-3.807152	107.532498	-3.807152	107.532498	-2.904942	-162.973534
5.350000	-2.798435	-165.046303	-3.943106	105.430681	-3.943106	105.430681	-2.798441	-165.042953
5.400000	-2.698031	-167.091125	-4.078538	103.353270	-4.078538	103.353270	-2.698037	-167.087883
5.450000	-2.603347	-169.112097	-4.213307	101.299640	-4.213307	101.299640	-2.603352	-169.108959
5.500000	-2.514029	-171.109878	-4.347283	99.269147	-4.347283	99.269147	-2.514034	-171.106839
5.550000	-2.429746	-173.085143	-4.480345	97.261125	-4.480345	97.261125	-2.429751	-173.082202
5.600000	-2.350190	-175.038585	-4.612380	95.274899	-4.612380	95.274899	-2.350195	-175.035737
5.650000	-2.275112	-176.970681	-4.743251	93.310008	-4.743251	93.310008	-2.275116	-176.967923
5.700000	-2.204234	-178.882161	-4.872862	91.365740	-4.872862	91.365740	-2.204238	-178.879490
5.750000	-2.137266	179.226038	-5.001159	89.441176	-5.001159	89.441176	-2.137269	179.228624
5.800000	-2.073971	177.353211	-5.128065	87.535629	-5.128065	87.535629	-2.073974	177.355715
5.850000	-2.014130	175.498655	-5.253507	85.648417	-5.253507	85.648417	-2.014134	175.501079
5.900000	-1.957538	173.661674	-5.377420	83.778864	-5.377420	83.778864	-1.957541	173.664021
5.950000	-1.904003	171.841581	-5.499745	81.926302	-5.499745	81.926302	-1.904006	171.843852
6.000000	-1.853345	170.037696	-5.620430	80.090073	-5.620430	80.090073	-1.853348	170.039894
6.050000	-1.805396	168.249354	-5.739426	78.269530	-5.739426	78.269530	-1.805398	168.251481
6.100000	-1.759999	166.475899	-5.856692	76.464039	-5.856692	76.464039	-1.760001	166.477956
6.150000	-1.717008	164.716689	-5.972190	74.672980	-5.972190	74.672980	-1.717009	164.718678
6.200000	-1.676283	162.971097	-6.085886	72.895743	-6.085886	72.895743	-1.676285	162.973020
6.250000	-1.637698	161.238509	-6.197752	71.131736	-6.197752	71.131736	-1.637699	161.240367
6.300000	-1.601168	159.518582	-6.307693	69.380641	-6.307693	69.380641	-1.601169	159.520378
6.350000	-1.566539	157.810453	-6.415759	67.641609	-6.415759	67.641609	-1.566539	157.812188
6.400000	-1.533705	156.113555	-6.521931	65.914091	-6.521931	65.914091	-1.533705	156.115230
6.450000	-1.502568	154.427336	-6.626196	64.197554	-6.626196	64.197554	-1.502567	154.428953
6.500000	-1.473033	152.751263	-6.728542	62.491481	-6.728542	62.491481	-1.473032	152.752822
6.550000	-1.445016	151.084814	-6.828958	60.795370	-6.828958	60.795370	-1.445014	151.086318
6.600000	-1.418433	149.427487	-6.927439	59.108733	-6.927439	59.108733	-1.418431	149.428937
6.650000	-1.393207	147.778794	-7.023980	57.431096	-7.023980	57.431096	-1.393205	147.780190
6.700000	-1.369268	146.138260	-7.118578	55.762002	-7.118578	55.762002	-1.369265	146.139605
6.750000	-1.346547	144.505429	-7.211233	54.101006	-7.211233	54.101006	-1.346544	144.506723
6.800000	-1.324981	142.879856	-7.301946	52.447678	-7.301946	52.447678	-1.324977	142.881101
6.850000	-1.304510	141.261114	-7.390721	50.801602	-7.390721	50.801602	-1.304505	141.262311
6.900000	-1.285210	139.649635	-7.477170	49.163284	-7.477170	49.163284	-1.285205	139.650785
6.950000	-1.266766	138.043328	-7.562059	47.530525	-7.562059	47.530525	-1.266760	138.044432
7.000000	-1.249258	136.442643	-7.645029	45.903841	-7.645029	45.903841	-1.249251	136.443703
7.050000	-1.232638	134.847209	-7.726088	44.282867	-7.726088	44.282867	-1.232631	134.848225
7.100000	-1.216863	133.256665	-7.805245	42.667252	-7.805245	42.667252	-1.216855	133.257639
7.150000	-1.201891	131.670665	-7.882510	41.056655	-7.882510	41.056655	-1.201883	131.671597
7.200000	-1.187684	130.088875	-7.957897	39.450748	-7.957897	39.450748	-1.187674	130.089767
7.250000	-1.174203	128.510972	-8.031417	37.849212	-8.031417	37.849212	-1.174194	128.511825
7.300000	-1.161416	126.936647	-8.103084	36.251741	-8.103084	36.251741	-1.161406	126.937462
7.350000	-1.149289	125.365601	-8.172911	34.658039	-8.172911	34.658039	-1.149278	125.366379
7.400000	-1.137792	123.797547	-8.240914	33.067819	-8.240914	33.067819	-1.137780	123.798290
7.450000	-1.126896	122.232210	-8.307109	31.480807	-8.307109	31.480807	-1.126883	122.232918
7.500000	-1.116573	120.669325	-8.371511	29.896735	-8.371511	29.896735	-1.116559	120.669999
7.550000	-1.106820	119.108720	-8.434042	28.315453	-8.434042	28.315453	-1.106806	119.109362
7.600000	-1.097589	117.550047	-8.494819	26.736587	-8.494819	26.736587	-1.097574	117.550657
7.650000	-1.088857	115.993073	-8.553859	25.159900	-8.553859	25.159900	-1.088842	115.993653
7.700000	-1.080604	114.437575	-8.611181	23.585163	-8.611181	23.585163	-1.080589	114.438125
7.750000	-1.072810	112.883339	-8.666804	22.012157	-8.666804	22.012157	-1.072793	112.883861
7.800000	-1.065455	111.330162	-8.720746	20.440671	-8.720746	20.440671	-1.065438	111.330656
7.850000	-1.058523	109.777847	-8.773027	18.870501	-8.773027	18.870501	-1.058506	109.778315
7.900000	-1.051997	108.226210	-8.823667	17.301453	-8.823667	17.301453	-1.051979	108.226652
7.950000	-1.045862	106.675072	-8.872686	15.733339	-8.872686	15.733339	-1.045844	106.675490
8.000000	-1.040103	105.124265	-8.920105	14.165979	-8.920105	14.165979	-1.040085	105.124659
8.050000	-1.034708	103.573627	-8.965945	12.599201	-8.965945	12.599201	-1.034689	103.573998
8.100000	-1.029663	102.023006	-9.010227	11.032841	-9.010227	11.032841	-1.029644	102.023355
8.150000	-1.024958	100.472257	-9.052973	9.466740	-9.052973	9.466740	-1.024938	100.472585
8.200000	-1.020581	98.921243	-9.094204	7.900749	-9.094204	7.900749	-1.020561	98.921550
8.250000	-1.016522	97.369835	-9.133943	6.334723	-9.133943	6.334723	-1.016502	97.370122
8.300000	-1.012773	95.817910	-9.172211	4.768526	-9.172211	4.768526	-1.012752	95.818178
8.350000	-1.009307	94.265397	-9.209123	3.202055	-9.209123	3.202055	-1.009286	94.265648
8.400000	-1.006141	92.712137	-9.244568	1.635159	-9.244568	1.635159	-1.006121	92.712370
8.450000	-1.003284	91.157964	-9.278486	0.067674	-9.278486	0.067674	-1.003263	91.158181
8.500000	-1.000691	89.602905	-9.311106	-1.500430	-9.311106	-1.500430	-1.000669	89.603106
8.550000	-0.998376	88.046798	-9.342336	-3.069311	-9.342336	-3.069311	-0.998354	88.046984
8.600000	-0.996328	86.489584	-9.372228	-4.639050	-9.372228	-4.639050	-0.996306	86.489755
8.650000	-0.994534	84.931233	-9.400859	-6.209704	-9.400859	-6.209704	-0.994511	84.931391
8.700000	-0.993011	83.371562	-9.428121	-7.781452	-9.428121	-7.781452	-0.992988	83.371707
8.750000	-0.991718	81.810708	-9.454246	-9.354206	-9.454246	-9.354206	-0.991694	81.810843
8.800000	-0.990702	80.248335	-9.478976	-10.928285	-9.478976	-10.928285	-0.990678	80.248459
8.850000	-0.989907	78.684686	-9.502613	-12.503498	-9.502613	-12.503498	-0.989883	78.684802
8.900000	-0.989368	77.119503	-9.524985	-14.080101	-9.524985	-14.080101	-0.989343	77.119611
8.950000	-0.989059	75.552892	-9.546235	-15.658021	-9.546235	-15.658021	-0.989032	75.552995
9.000000	-0.988984	73.984770	-9.566341	-17.237357	-9.566341	-17.237357	-0.988957	73.984869
9.050000	-0.989146	72.415086	-9.585304	-18.818181	-9.585304	-18.818181	-0.989117	72.415184
9.100000	-0.989525	70.843946	-9.603238	-20.400415	-9.603238	-20.400415	-0.989494	70.844044
9.150000	-0.990147	69.271134	-9.620015	-21.984292	-9.620015	-21.984292	-0.990115	69.271234
9.200000	-0.990972	67.696918	-9.635849	-23.569572	-9.635849	-23.569572	-0.990939	67.697024
9.250000	-0.992040	66.121007	-9.650560	-25.156573	-9.650560	-25.156573	-0.992005	66.121123
9.300000	-0.993310	64.543684	-9.664352	-26.745036	-9.664352	-26.745036	-0.993272	64.543812
9.350000	-0.994805	62.964792	-9.677132	-28.335153	-9.677132	-28.335153	-0.994765	62.964938
9.400000	-0.996509	61.384448	-9.688982	-29.926833	-9.688982	-29.926833	-0.996467	61.384614
9.450000	-0.998420	59.802687	-9.699924	-31.520073	-9.699924	-31.520073	-0.998376	59.802879
9.500000	-1.000548	58.219471	-9.709930	-33.114956	-9.709930	-33.114956	-1.000501	58.219694
9.550000	-1.002866	56.635009	-9.719125	-34.711287	-9.719125	-34.711287	-1.002817	56.635268
9.600000	-1.005407	55.049134	-9.727383	-36.309315	-9.727383	-36.309315	-1.005355	55.049435
9.650000	-1.008129	53.462155	-9.734890	-37.908720	-9.734890	-37.908720	-1.008075	53.462503
9.700000	-1.011063	51.873942	-9.741525	-39.509734	-9.741525	-39.509734	-1.011007	51.874344
9.750000	-1.014181	50.284728	-9.747421	-41.112124	-9.747421	-41.112124	-1.014123	50.285191
9.800000	-1.017494	48.694526	-9.752539	-42.715962	-9.752539	-42.715962	-1.017435	48.695056
9.850000	-1.020996	47.103452	-9.756915	-44.321175	-9.756915	-44.321175	-1.020936	47.104057
9.900000	-1.024677	45.511644	-9.760598	-45.927665	-9.760598	-45.927665	-1.024617	45.512331
9.950000	-1.028552	43.919151	-9.763543	-47.535503	-9.763543	-47.535503	-1.028491	43.919928
10.000000	-1.032590	42.326182	-9.765874	-49.144442	-9.765874	-49.144442	-1.032530	42.327057
