! freq	dB(S11)	phase(S11)	dB(S12)	phase(S12)	
!     	dB(S21)	phase(S21)	dB(S22)	phase(S22)	
!S-par simulation data
#  GHz  S  DB  R 50
0.000000	-89.513843	0.000000	-0.000290	0.000000	-0.000290	0.000000	-89.513843	0.000000
0.050000	-45.123456	-91.835856	-0.002030	-1.652970	-0.002030	-1.652970	-44.977843	-91.841639
0.100000	-39.048402	-93.108987	-0.005647	-3.291332	-0.005647	-3.291332	-38.985956	-94.074632
0.150000	-35.517590	-94.376105	-0.009251	-4.917985	-0.009251	-4.917985	-35.491219	-96.101577
0.200000	-33.021944	-95.680890	-0.012424	-6.539450	-0.012424	-6.539450	-33.015313	-98.062907
0.250000	-31.092503	-97.006027	-0.015343	-8.159198	-0.015343	-8.159198	-31.097456	-100.004144
0.300000	-29.521368	-98.341694	-0.018220	-9.778450	-0.018220	-9.778450	-29.533387	-101.940877
0.350000	-28.198323	-99.682917	-0.021205	-11.397477	-0.021205	-11.397477	-28.214717	-103.878255
0.400000	-27.057104	-101.026515	-0.024378	-13.016245	-0.024378	-13.016245	-27.076226	-105.817686
0.450000	-26.055260	-102.370726	-0.027784	-14.634620	-0.027784	-14.634620	-26.076032	-107.759401
0.500000	-25.164161	-103.714264	-0.031456	-16.252424	-0.031456	-16.252424	-25.185824	-109.703370
0.550000	-24.362889	-105.056217	-0.035399	-17.869525	-0.035399	-17.869525	-24.384912	-111.649296
0.600000	-23.636103	-106.395912	-0.039610	-19.485805	-0.039610	-19.485805	-23.658097	-113.596952
0.650000	-22.972430	-107.732694	-0.044093	-21.101122	-0.044093	-21.101122	-22.994090	-115.546218
0.700000	-22.362856	-109.066055	-0.048840	-22.715372	-0.048840	-22.715372	-22.383942	-117.496969
0.750000	-21.800026	-110.395671	-0.053833	-24.328501	-0.053833	-24.328501	-21.820354	-119.449088
0.800000	-21.278266	-111.721119	-0.059065	-25.940421	-0.059065	-25.940421	-21.297685	-121.402556
0.850000	-20.793094	-113.041897	-0.064528	-27.551026	-0.064528	-27.551026	-20.811472	-123.357416
0.900000	-20.340272	-114.357891	-0.070198	-29.160322	-0.070198	-29.160322	-20.357508	-125.313634
0.950000	-19.916522	-115.668820	-0.076061	-30.768267	-0.076061	-30.768267	-19.932535	-127.271266
1.000000	-19.519435	-116.974120	-0.082108	-32.374756	-0.082108	-32.374756	-19.534149	-129.230473
1.050000	-19.146296	-118.273790	-0.088316	-33.979832	-0.088316	-33.979832	-19.159654	-131.191285
1.100000	-18.795029	-119.567623	-0.094667	-35.583487	-0.094667	-35.583487	-18.806990	-133.153816
1.150000	-18.464107	-120.855165	-0.101149	-37.185662	-0.101149	-37.185662	-18.474630	-135.118277
1.200000	-18.151871	-122.136282	-0.107743	-38.786380	-0.107743	-38.786380	-18.160928	-137.084808
1.250000	-17.856818	-123.410906	-0.114430	-40.385681	-0.114430	-40.385681	-17.864391	-139.053543
1.300000	-17.577873	-124.678707	-0.121196	-41.983553	-0.121196	-41.983553	-17.583948	-141.024725
1.350000	-17.314082	-125.939359	-0.128023	-43.579996	-0.128023	-43.579996	-17.318649	-142.998624
1.400000	-17.064244	-127.192941	-0.134894	-45.175092	-0.134894	-45.175092	-17.067300	-144.975372
1.450000	-16.827524	-128.439258	-0.141793	-46.768872	-0.141793	-46.768872	-16.829072	-146.955220
1.500000	-16.603476	-129.677745	-0.148706	-48.361315	-0.148706	-48.361315	-16.603518	-148.938613
1.550000	-16.391061	-130.908639	-0.155616	-49.952540	-0.155616	-49.952540	-16.389604	-150.925651
1.600000	-16.189652	-132.131776	-0.162510	-51.542599	-0.162510	-51.542599	-16.186706	-152.916622
1.650000	-15.998945	-133.346636	-0.169372	-53.131502	-0.169372	-53.131502	-15.994518	-154.912029
1.700000	-15.818142	-134.553419	-0.176190	-54.719363	-0.176190	-54.719363	-15.812246	-156.912007
1.750000	-15.646931	-135.751732	-0.182950	-56.306225	-0.182950	-56.306225	-15.639574	-158.917032
1.800000	-15.484862	-136.941413	-0.189639	-57.892162	-0.189639	-57.892162	-15.476054	-160.927470
1.850000	-15.331410	-138.122482	-0.196248	-59.477271	-0.196248	-59.477271	-15.321157	-162.943577
1.900000	-15.186347	-139.294545	-0.202764	-61.061611	-0.202764	-61.061611	-15.174654	-164.965892
1.950000	-15.049332	-140.457414	-0.209177	-62.645269	-0.209177	-62.645269	-15.036199	-166.994843
2.000000	-14.919989	-141.610996	-0.215478	-64.228339	-0.215478	-64.228339	-14.905413	-169.030792
2.050000	-14.798029	-142.755096	-0.221658	-65.810910	-0.221658	-65.810910	-14.782002	-171.074183
2.100000	-14.683183	-143.889507	-0.227710	-67.393072	-0.227710	-67.393072	-14.665692	-173.125476
2.150000	-14.575201	-145.014016	-0.233627	-68.974918	-0.233627	-68.974918	-14.556226	-175.185146
2.200000	-14.473851	-146.128395	-0.239402	-70.556541	-0.239402	-70.556541	-14.453367	-177.253686
2.250000	-14.378917	-147.232406	-0.245030	-72.138035	-0.245030	-72.138035	-14.356889	-179.331601
2.300000	-14.290197	-148.325797	-0.250505	-73.719498	-0.250505	-73.719498	-14.266584	178.580585
2.350000	-14.207502	-149.408302	-0.255825	-75.301025	-0.255825	-75.301025	-14.182253	176.482334
2.400000	-14.130656	-150.479639	-0.260985	-76.882713	-0.260985	-76.882713	-14.103711	174.373094
2.450000	-14.059490	-151.539508	-0.265983	-78.464659	-0.265983	-78.464659	-14.030779	172.252294
2.500000	-13.993849	-152.587594	-0.270818	-80.046960	-0.270818	-80.046960	-13.963292	170.119352
2.550000	-13.933688	-153.623288	-0.275483	-81.629723	-0.275483	-81.629723	-13.901191	167.973375
2.600000	-13.878759	-154.646489	-0.279984	-83.213037	-0.279984	-83.213037	-13.844218	165.814013
2.650000	-13.828926	-155.656820	-0.284319	-84.796997	-0.284319	-84.796997	-13.792227	163.640634
2.700000	-13.784062	-156.653881	-0.288489	-86.381697	-0.288489	-86.381697	-13.745077	161.452594
2.750000	-13.744043	-157.637250	-0.292498	-87.967228	-0.292498	-87.967228	-13.702631	159.249234
2.800000	-13.708748	-158.606481	-0.296345	-89.553682	-0.296345	-89.553682	-13.664757	157.029879
2.850000	-13.678063	-159.561105	-0.300036	-91.141150	-0.300036	-91.141150	-13.631325	154.793843
2.900000	-13.651873	-160.500629	-0.303572	-92.729717	-0.303572	-92.729717	-13.602208	152.540426
2.950000	-13.630067	-161.424534	-0.306958	-94.319470	-0.306958	-94.319470	-13.577281	150.268917
3.000000	-13.612535	-162.332277	-0.310199	-95.910494	-0.310199	-95.910494	-13.556419	147.978591
3.050000	-13.599165	-163.223292	-0.313299	-97.502869	-0.313299	-97.502869	-13.539498	145.668714
3.100000	-13.589848	-164.096984	-0.316264	-99.096674	-0.316264	-99.096674	-13.526394	143.338544
3.150000	-13.584513	-164.952536	-0.319100	-100.692004	-0.319100	-100.692004	-13.517018	140.987091
3.200000	-13.583042	-165.789286	-0.321813	-102.288935	-0.321813	-102.288935	-13.511240	138.613572
3.250000	-13.585275	-166.606763	-0.324411	-103.887521	-0.324411	-103.887521	-13.508888	136.217453
3.300000	-13.591093	-167.404282	-0.326902	-105.487832	-0.326902	-105.487832	-13.509829	133.797969
3.350000	-13.600369	-168.181141	-0.329293	-107.089931	-0.329293	-107.089931	-13.513924	131.354355
3.400000	-13.612973	-168.936616	-0.331594	-108.693882	-0.331594	-108.693882	-13.521031	128.885850
3.450000	-13.628769	-169.669972	-0.333813	-110.299743	-0.333813	-110.299743	-13.531003	126.391700
3.500000	-13.647615	-170.380462	-0.335958	-111.907569	-0.335958	-111.907569	-13.543685	123.871159
3.550000	-13.669358	-171.067329	-0.338039	-113.517415	-0.338039	-113.517415	-13.558917	121.323497
3.600000	-13.693841	-171.729814	-0.340066	-115.129327	-0.340066	-115.129327	-13.576531	118.748002
3.650000	-13.720895	-172.367160	-0.342048	-116.743352	-0.342048	-116.743352	-13.596351	116.143987
3.700000	-13.750342	-172.978616	-0.343996	-118.359532	-0.343996	-118.359532	-13.618194	113.510795
3.750000	-13.781993	-173.563442	-0.345919	-119.977904	-0.345919	-119.977904	-13.641866	110.847803
3.800000	-13.815684	-174.120312	-0.347828	-121.598553	-0.347828	-121.598553	-13.667195	108.153761
3.850000	-13.851156	-174.649115	-0.349734	-123.221461	-0.349734	-123.221461	-13.693928	105.428793
3.900000	-13.888185	-175.149201	-0.351647	-124.846655	-0.351647	-124.846655	-13.721844	102.672437
3.950000	-13.926532	-175.619968	-0.353579	-126.474159	-0.353579	-126.474159	-13.750710	99.884296
4.000000	-13.965947	-176.060871	-0.355540	-128.103990	-0.355540	-128.103990	-13.780284	97.064052
4.050000	-14.006167	-176.471432	-0.357541	-129.736164	-0.357541	-129.736164	-13.810314	94.211477
4.100000	-14.046915	-176.851257	-0.359593	-131.370693	-0.359593	-131.370693	-13.840540	91.326438
4.150000	-14.087901	-177.200041	-0.361706	-133.007584	-0.361706	-133.007584	-13.870690	88.408908
4.200000	-14.128825	-177.517589	-0.363892	-134.646840	-0.363892	-134.646840	-13.900489	85.458982
4.250000	-14.169375	-177.803822	-0.366161	-136.288461	-0.366161	-136.288461	-13.929650	82.476880
4.300000	-14.209227	-178.058795	-0.368522	-137.932442	-0.368522	-137.932442	-13.957885	79.462960
4.350000	-14.248052	-178.282710	-0.370988	-139.578776	-0.370988	-139.578776	-13.984900	76.417728
4.400000	-14.285490	-178.475596	-0.373569	-141.227475	-0.373569	-141.227475	-14.010377	73.341521
4.450000	-14.321188	-178.638009	-0.376275	-142.878524	-0.376275	-142.878524	-14.034012	70.235195
4.500000	-14.354817	-178.771004	-0.379115	-144.531877	-0.379115	-144.531877	-14.055529	67.100088
4.550000	-14.386033	-178.875495	-0.382098	-146.187510	-0.382098	-146.187510	-14.074639	63.937375
4.600000	-14.414495	-178.952592	-0.385234	-147.845397	-0.385234	-147.845397	-14.091062	60.748403
4.650000	-14.439869	-179.003609	-0.388531	-149.505507	-0.388531	-149.505507	-14.104528	57.534694
4.700000	-14.461833	-179.030058	-0.391997	-151.167807	-0.391997	-151.167807	-14.114781	54.297938
4.750000	-14.480078	-179.033655	-0.395641	-152.832258	-0.395641	-152.832258	-14.121583	51.039989
4.800000	-14.494313	-179.016310	-0.399469	-154.498821	-0.399469	-154.498821	-14.124712	47.762852
4.850000	-14.504268	-178.980118	-0.403490	-156.167452	-0.403490	-156.167452	-14.123972	44.468675
4.900000	-14.509702	-178.927348	-0.407709	-157.838106	-0.407709	-157.838106	-14.119191	41.159732
4.950000	-14.510398	-178.860427	-0.412133	-159.510732	-0.412133	-159.510732	-14.110223	37.838407
5.000000	-14.506175	-178.781916	-0.416767	-161.185279	-0.416767	-161.185279	-14.096954	34.507171
5.050000	-14.496772	-178.694359	-0.421620	-162.861732	-0.421620	-162.861732	-14.079201	31.168463
5.100000	-14.482187	-178.600777	-0.426694	-164.539993	-0.426694	-164.539993	-14.057008	27.825085
5.150000	-14.462349	-178.503993	-0.431991	-166.220004	-0.431991	-166.220004	-14.030358	24.479635
5.200000	-14.437228	-178.406853	-0.437514	-167.901703	-0.437514	-167.901703	-13.999267	21.134706
5.250000	-14.406834	-178.312202	-0.443266	-169.585028	-0.443266	-169.585028	-13.963784	17.792854
5.300000	-14.371213	-178.222846	-0.449249	-171.269916	-0.449249	-171.269916	-13.923989	14.456579
5.350000	-14.330453	-178.141531	-0.455464	-172.956303	-0.455464	-172.956303	-13.879993	11.128297
5.400000	-14.284677	-178.070906	-0.461912	-174.644122	-0.461912	-174.644122	-13.831935	7.810324
5.450000	-14.234040	-178.013505	-0.468591	-176.333306	-0.468591	-176.333306	-13.779980	4.504853
5.500000	-14.178732	-177.971721	-0.475501	-178.023790	-0.475501	-178.023790	-13.724318	1.213937
5.550000	-14.118968	-177.947784	-0.482641	-179.715505	-0.482641	-179.715505	-13.665159	-2.060519
5.600000	-14.054989	-177.943751	-0.490007	178.591615	-0.490007	178.591615	-13.602730	-5.316777
5.650000	-13.987011	-177.961744	-0.497599	176.897626	-0.497599	176.897626	-13.537240	-8.553039
5.700000	-13.915320	-178.003484	-0.505414	175.202598	-0.505414	175.202598	-13.468951	-11.767871
5.750000	-13.840258	-178.070186	-0.513442	173.506606	-0.513442	173.506606	-13.398165	-14.960290
5.800000	-13.762128	-178.163101	-0.521681	171.809715	-0.521681	171.809715	-13.325153	-18.129275
5.850000	-13.681238	-178.283278	-0.530122	170.111989	-0.530122	170.111989	-13.250188	-21.273982
5.900000	-13.597900	-178.431567	-0.538759	168.413487	-0.538759	168.413487	-13.173545	-24.393738
5.950000	-13.512423	-178.608631	-0.547586	166.714270	-0.547586	166.714270	-13.095495	-27.488037
6.000000	-13.425116	-178.814951	-0.556592	165.014394	-0.556592	165.014394	-13.016307	-30.556530
6.050000	-13.336282	-179.050834	-0.565770	163.313914	-0.565770	163.313914	-12.936243	-33.599020
6.100000	-13.246214	-179.316433	-0.575110	161.612881	-0.575110	161.612881	-12.855561	-36.615447
6.150000	-13.155199	-179.611748	-0.584602	159.911342	-0.584602	159.911342	-12.774505	-39.605885
6.200000	-13.063511	-179.936647	-0.594234	158.209345	-0.594234	158.209345	-12.693315	-42.570527
6.250000	-12.971415	179.709123	-0.603996	156.506929	-0.603996	156.506929	-12.612218	-45.509676
6.300000	-12.879140	179.325309	-0.613877	154.804125	-0.613877	154.804125	-12.531424	-48.423203
6.350000	-12.786954	178.913017	-0.623863	153.100975	-0.623863	153.100975	-12.451154	-51.312164
6.400000	-12.695080	178.472800	-0.633940	151.397507	-0.633940	151.397507	-12.371598	-54.177141
6.450000	-12.603726	178.005285	-0.644095	149.693747	-0.644095	149.693747	-12.292939	-57.018788
6.500000	-12.513088	177.511162	-0.654313	147.989712	-0.654313	147.989712	-12.215344	-59.837822
6.550000	-12.423348	176.991177	-0.664582	146.285418	-0.664582	146.285418	-12.138971	-62.635018
6.600000	-12.334671	176.446118	-0.674886	144.580872	-0.674886	144.580872	-12.063965	-65.411198
6.650000	-12.247214	175.876813	-0.685210	142.876079	-0.685210	142.876079	-11.990461	-68.167229
6.700000	-12.161117	175.284117	-0.695539	141.171036	-0.695539	141.171036	-11.918580	-70.904014
6.750000	-12.076509	174.668912	-0.705859	139.465735	-0.705859	139.465735	-11.848436	-73.622486
6.800000	-11.993507	174.032095	-0.716154	137.760161	-0.716154	137.760161	-11.780132	-76.323608
6.850000	-11.912217	173.374576	-0.726409	136.054295	-0.726409	136.054295	-11.713758	-79.008364
6.900000	-11.832746	172.697069	-0.736607	134.348107	-0.736607	134.348107	-11.649417	-81.677604
6.950000	-11.755181	172.000529	-0.746733	132.641562	-0.746733	132.641562	-11.587185	-84.332382
7.000000	-11.679584	171.286093	-0.756772	130.934624	-0.756772	130.934624	-11.527111	-86.973901
7.050000	-11.606019	170.554684	-0.766709	129.227248	-0.766709	129.227248	-11.469250	-89.603206
7.100000	-11.534541	169.807216	-0.776530	127.519380	-0.776530	127.519380	-11.413653	-92.221353
7.150000	-11.465197	169.044599	-0.786220	125.810964	-0.786220	125.810964	-11.360358	-94.829405
7.200000	-11.398024	168.267735	-0.795766	124.101932	-0.795766	124.101932	-11.309402	-97.428429
7.250000	-11.333054	167.477515	-0.805154	122.392214	-0.805154	122.392214	-11.260810	-100.019500
7.300000	-11.270311	166.674818	-0.814371	120.681731	-0.814371	120.681731	-11.214603	-102.603696
7.350000	-11.209810	165.860515	-0.823405	118.970400	-0.823405	118.970400	-11.170795	-105.182098
7.400000	-11.151563	165.035459	-0.832245	117.258132	-0.832245	117.258132	-11.129394	-107.755792
7.450000	-11.095573	164.200496	-0.840879	115.544829	-0.840879	115.544829	-11.090401	-110.325863
7.500000	-11.041839	163.356453	-0.849298	113.830392	-0.849298	113.830392	-11.053811	-112.893401
7.550000	-10.990395	162.503987	-0.857488	112.114685	-0.857488	112.114685	-11.019665	-115.459490
7.600000	-10.941188	161.644097	-0.865445	110.397619	-0.865445	110.397619	-10.987896	-118.025279
7.650000	-10.894198	160.777571	-0.873163	108.679080	-0.873163	108.679080	-10.958483	-120.591860
7.700000	-10.849403	159.905183	-0.880636	106.958947	-0.880636	106.958947	-10.931398	-123.160328
7.750000	-10.806774	159.027694	-0.887859	105.237096	-0.887859	105.237096	-10.906606	-125.731777
7.800000	-10.766280	158.145851	-0.894830	103.513400	-0.894830	103.513400	-10.884069	-128.307302
7.850000	-10.727882	157.260390	-0.901546	101.787731	-0.901546	101.787731	-10.863741	-130.887998
7.900000	-10.691539	156.372031	-0.908006	100.059956	-0.908006	100.059956	-10.845571	-133.474957
7.950000	-10.657205	155.481484	-0.914211	98.329943	-0.914211	98.329943	-10.829500	-136.069272
8.000000	-10.624831	154.589445	-0.920163	96.597558	-0.920163	96.597558	-10.815465	-138.672031
8.050000	-10.594361	153.696598	-0.925866	94.862668	-0.925866	94.862668	-10.803395	-141.284319
8.100000	-10.565737	152.803615	-0.931324	93.125139	-0.931324	93.125139	-10.793211	-143.907216
8.150000	-10.538913	151.911168	-0.936540	91.384809	-0.936540	91.384809	-10.784849	-146.541933
8.200000	-10.513819	151.019926	-0.941523	89.641542	-0.941523	89.641542	-10.778212	-149.189570
8.250000	-10.490366	150.130518	-0.946283	87.895243	-0.946283	87.895243	-10.773181	-151.851053
8.300000	-10.468475	149.243565	-0.950831	86.145786	-0.950831	86.145786	-10.769647	-154.527419
8.350000	-10.448066	148.359676	-0.955178	84.393052	-0.955178	84.393052	-10.767494	-157.219691
8.400000	-10.429052	147.479445	-0.959336	82.636924	-0.959336	82.636924	-10.766596	-159.928870
8.450000	-10.411342	146.603453	-0.963317	80.877291	-0.963317	80.877291	-10.766820	-162.655934
8.500000	-10.394839	145.732265	-0.967137	79.114044	-0.967137	79.114044	-10.768022	-165.401832
8.550000	-10.379442	144.866429	-0.970808	77.347081	-0.970808	77.347081	-10.770051	-168.167481
8.600000	-10.365043	144.006478	-0.974347	75.576303	-0.974347	75.576303	-10.772743	-170.953760
8.650000	-10.351529	143.152920	-0.977770	73.801618	-0.977770	73.801618	-10.775928	-173.761503
8.700000	-10.338781	142.306243	-0.981091	72.022933	-0.981091	72.022933	-10.779423	-176.591497
8.750000	-10.326675	141.466913	-0.984329	70.240164	-0.984329	70.240164	-10.783038	-179.444469
8.800000	-10.315084	140.635542	-0.987497	68.453131	-0.987497	68.453131	-10.786564	177.678389
8.850000	-10.303858	139.812372	-0.990614	66.661842	-0.990614	66.661842	-10.789787	174.776989
8.900000	-10.292851	138.997768	-0.993698	64.866214	-0.993698	64.866214	-10.792485	171.850824
8.950000	-10.281909	138.192054	-0.996765	63.066163	-0.996765	63.066163	-10.794427	168.899476
9.000000	-10.270874	137.395508	-0.999831	61.261605	-0.999831	61.261605	-10.795376	165.922627
9.050000	-10.259577	136.608355	-1.002915	59.452452	-1.002915	59.452452	-10.795083	162.920064
9.100000	-10.247847	135.830759	-1.006032	57.638609	-1.006032	57.638609	-10.793296	159.891691
9.150000	-10.235501	135.062821	-1.009202	55.819980	-1.009202	55.819980	-10.789754	156.837538
9.200000	-10.222377	134.304344	-1.012440	53.996573	-1.012440	53.996573	-10.784245	153.758349
9.250000	-10.208226	133.555816	-1.015771	52.167994	-1.015771	52.167994	-10.776373	150.652987
9.300000	-10.192876	132.816756	-1.019212	50.334286	-1.019212	50.334286	-10.765937	147.522780
9.350000	-10.176125	132.086908	-1.022786	48.495320	-1.022786	48.495320	-10.752668	144.368350
9.400000	-10.157766	131.365903	-1.026517	46.650958	-1.026517	46.650958	-10.736299	141.190477
9.450000	-10.137593	130.653252	-1.030430	44.801052	-1.030430	44.801052	-10.716565	137.990113
9.500000	-10.115396	129.948337	-1.034553	42.945449	-1.034553	42.945449	-10.693213	134.768378
9.550000	-10.090970	129.250399	-1.038919	41.083986	-1.038919	41.083986	-10.665995	131.526566
9.600000	-10.064100	128.558559	-1.043562	39.216468	-1.043562	39.216468	-10.634656	128.266057
9.650000	-10.034575	127.871762	-1.048522	37.342691	-1.048522	37.342691	-10.598951	124.988435
9.700000	-10.002236	127.188730	-1.053839	35.462541	-1.053839	35.462541	-10.558719	121.695678
9.750000	-9.966914	126.508092	-1.059558	33.575847	-1.059558	33.575847	-10.513780	118.389738
9.800000	-9.928456	125.828320	-1.065729	31.682443	-1.065729	31.682443	-10.463977	115.072706
9.850000	-9.886732	125.147741	-1.072406	29.782168	-1.072406	29.782168	-10.409177	111.746803
9.900000	-9.841637	124.464543	-1.079647	27.874870	-1.079647	27.874870	-10.349276	108.414359
9.950000	-9.793097	123.776796	-1.087516	25.960413	-1.087516	25.960413	-10.284199	105.077802
10.000000	-9.741068	123.082466	-1.096080	24.038673	-1.096080	24.038673	-10.213899	101.739635
