! freq	dB(S11)	phase(S11)	dB(S12)	phase(S12)	
!     	dB(S21)	phase(S21)	dB(S22)	phase(S22)	
!S-par simulation data
#  GHz  S  DB  R 50
0.000000	-79.877710	0.000000	-0.000881	0.000000	-0.000881	0.000000	-79.877710	0.000000
0.050000	-55.191168	72.909818	-0.002901	-2.267915	-0.002901	-2.267915	-55.183955	72.894375
0.100000	-49.039034	78.292380	-0.007578	-4.522713	-0.007578	-4.522713	-49.038022	78.279539
0.150000	-45.460487	78.778301	-0.012713	-6.764532	-0.012713	-6.764532	-45.460629	78.759304
0.200000	-42.904956	77.989597	-0.017253	-8.999587	-0.017253	-8.999587	-42.905442	77.964263
0.250000	-40.898298	76.654960	-0.021004	-11.232422	-0.021004	-11.232422	-40.898889	76.623648
0.300000	-39.231047	75.033970	-0.024114	-13.465440	-0.024114	-13.465440	-39.231657	74.997094
0.350000	-37.793853	73.245726	-0.026803	-15.699556	-0.026803	-15.699556	-37.794453	73.203666
0.400000	-36.520610	71.344448	-0.029226	-17.935095	-0.029226	-17.935095	-36.521193	71.297559
0.450000	-35.367131	69.360179	-0.031501	-20.172243	-0.031501	-20.172243	-35.367698	69.308805
0.500000	-34.307536	67.318142	-0.033721	-22.410972	-0.033721	-22.410972	-34.308092	67.262594
0.550000	-33.321954	65.231888	-0.035946	-24.651326	-0.035946	-24.651326	-33.322505	65.172467
0.600000	-32.393929	63.109742	-0.038224	-26.893450	-0.038224	-26.893450	-32.394478	63.046755
0.650000	-31.514626	60.960244	-0.040590	-29.137362	-0.040590	-29.137362	-31.515178	60.893984
0.700000	-30.676542	58.788777	-0.043069	-31.383139	-0.043069	-31.383139	-30.677097	58.719531
0.750000	-29.872292	56.598660	-0.045691	-33.630953	-0.045691	-33.630953	-29.872852	56.526719
0.800000	-29.097389	54.392997	-0.048475	-35.880925	-0.048475	-35.880925	-29.097953	54.318647
0.850000	-28.348705	52.174250	-0.051441	-38.133167	-0.051441	-38.133167	-28.349273	52.097766
0.900000	-27.623441	49.944157	-0.054607	-40.387814	-0.054607	-40.387814	-27.624012	49.865805
0.950000	-26.919139	47.703991	-0.057996	-42.645025	-0.057996	-42.645025	-26.919711	47.624027
1.000000	-26.233949	45.454783	-0.061627	-44.904951	-0.061627	-44.904951	-26.234521	45.373453
1.050000	-25.566374	43.197339	-0.065523	-47.167749	-0.065523	-47.167749	-25.566944	43.114876
1.100000	-24.915194	40.932295	-0.069707	-49.433577	-0.069707	-49.433577	-24.915760	40.848919
1.150000	-24.279406	38.660150	-0.074207	-51.702592	-0.074207	-51.702592	-24.279968	38.576067
1.200000	-23.658181	36.381303	-0.079048	-53.974948	-0.079048	-53.974948	-23.658737	36.296707
1.250000	-23.050828	34.096074	-0.084261	-56.250798	-0.084261	-56.250798	-23.051375	34.011143
1.300000	-22.456176	31.804591	-0.089887	-58.530371	-0.089887	-58.530371	-22.456715	31.719494
1.350000	-21.874375	29.507200	-0.095952	-60.813732	-0.095952	-60.813732	-21.874905	29.422089
1.400000	-21.305399	27.204165	-0.102485	-63.100948	-0.102485	-63.100948	-21.305918	27.119178
1.450000	-20.748192	24.895478	-0.109538	-65.392249	-0.109538	-65.392249	-20.748700	24.810745
1.500000	-20.202715	22.581329	-0.117147	-67.687702	-0.117147	-67.687702	-20.203210	22.496966
1.550000	-19.668687	20.261837	-0.125355	-69.987408	-0.125355	-69.987408	-19.669169	20.177949
1.600000	-19.145697	17.937068	-0.134215	-72.291485	-0.134215	-72.291485	-19.146166	17.853751
1.650000	-18.633650	15.607160	-0.143771	-74.599979	-0.143771	-74.599979	-18.634106	15.524501
1.700000	-18.132402	13.272237	-0.154072	-76.912928	-0.154072	-76.912928	-18.132844	13.190313
1.750000	-17.641769	10.932415	-0.165171	-79.230359	-0.165171	-79.230359	-17.642196	10.851296
1.800000	-17.161582	8.587818	-0.177120	-81.552282	-0.177120	-81.552282	-17.161995	8.507566
1.850000	-16.691684	6.238583	-0.189977	-83.878681	-0.189977	-83.878681	-16.692083	6.159252
1.900000	-16.231856	3.884836	-0.203803	-86.209543	-0.203803	-86.209543	-16.232240	3.806476
1.950000	-15.781978	1.526747	-0.218656	-88.544800	-0.218656	-88.544800	-15.782347	1.449402
2.000000	-15.342001	-0.835471	-0.234592	-90.884336	-0.234592	-90.884336	-15.342356	-0.911763
2.050000	-14.911803	-3.201612	-0.251670	-93.228030	-0.251670	-93.228030	-14.912144	-3.276818
2.100000	-14.491269	-5.571447	-0.269948	-95.575733	-0.269948	-95.575733	-14.491596	-5.645538
2.150000	-14.080290	-7.944722	-0.289488	-97.927266	-0.289488	-97.927266	-14.080602	-8.017673
2.200000	-13.678733	-10.321170	-0.310352	-100.282427	-0.310352	-100.282427	-13.679032	-10.392957
2.250000	-13.286461	-12.700497	-0.332606	-102.640990	-0.332606	-102.640990	-13.286746	-12.771103
2.300000	-12.903450	-15.082350	-0.356297	-105.002652	-0.356297	-105.002652	-12.903721	-15.151758
2.350000	-12.529603	-17.466372	-0.381481	-107.367109	-0.381481	-107.367109	-12.529861	-17.534569
2.400000	-12.164823	-19.852183	-0.408211	-109.734024	-0.408211	-109.734024	-12.165068	-19.919158
2.450000	-11.809016	-22.239376	-0.436539	-112.103033	-0.436539	-112.103033	-11.809248	-22.305118
2.500000	-11.462087	-24.627517	-0.466513	-114.473738	-0.466513	-114.473738	-11.462306	-24.692020
2.550000	-11.123875	-27.016152	-0.498204	-116.845731	-0.498204	-116.845731	-11.124082	-27.079409
2.600000	-10.794372	-29.404781	-0.531630	-119.218528	-0.531630	-119.218528	-10.794567	-29.466787
2.650000	-10.473534	-31.792919	-0.566799	-121.591653	-0.566799	-121.591653	-10.473717	-31.853670
2.700000	-10.161167	-34.180026	-0.603791	-123.964614	-0.603791	-123.964614	-10.161338	-34.239521
2.750000	-9.857213	-36.565568	-0.642616	-126.336880	-0.642616	-126.336880	-9.857373	-36.623804
2.800000	-9.561573	-38.948985	-0.683297	-128.707909	-0.683297	-128.707909	-9.561722	-39.005962
2.850000	-9.274135	-41.329680	-0.725866	-131.077121	-0.725866	-131.077121	-9.274274	-41.385398
2.900000	-8.994811	-43.707076	-0.770328	-133.443942	-0.770328	-133.443942	-8.994939	-43.761535
2.950000	-8.723496	-46.080589	-0.816683	-135.807791	-0.816683	-135.807791	-8.723613	-46.133788
3.000000	-8.460079	-48.449620	-0.864934	-138.168072	-0.864934	-138.168072	-8.460188	-48.501562
3.050000	-8.204449	-50.813569	-0.915076	-140.524186	-0.915076	-140.524186	-8.204548	-50.864255
3.100000	-7.956488	-53.171836	-0.967098	-142.875530	-0.967098	-142.875530	-7.956577	-53.221267
3.150000	-7.716082	-55.523785	-1.020992	-145.221469	-1.020992	-145.221469	-7.716162	-55.571963
3.200000	-7.483113	-57.868815	-1.076733	-147.561398	-1.076733	-147.561398	-7.483184	-57.915742
3.250000	-7.257451	-60.206377	-1.134284	-149.894754	-1.134284	-149.894754	-7.257513	-60.252055
3.300000	-7.038965	-62.535902	-1.193610	-152.220960	-1.193610	-152.220960	-7.039018	-62.580333
3.350000	-6.827522	-64.856833	-1.254672	-154.539449	-1.254672	-154.539449	-6.827568	-64.900019
3.400000	-6.622988	-67.168633	-1.317423	-156.849672	-1.317423	-156.849672	-6.623026	-67.210575
3.450000	-6.425230	-69.470756	-1.381815	-159.151073	-1.381815	-159.151073	-6.425260	-69.511456
3.500000	-6.234122	-71.762643	-1.447798	-161.443084	-1.447798	-161.443084	-6.234144	-71.802103
3.550000	-6.049502	-74.043903	-1.515300	-163.725293	-1.515300	-163.725293	-6.049516	-74.082124
3.600000	-5.871225	-76.314090	-1.584256	-165.997241	-1.584256	-165.997241	-5.871232	-76.351074
3.650000	-5.699174	-78.572659	-1.654607	-168.258373	-1.654607	-168.258373	-5.699174	-78.608406
3.700000	-5.533125	-80.819546	-1.726258	-170.508589	-1.726258	-170.508589	-5.533118	-80.854057
3.750000	-5.372972	-83.054204	-1.799148	-172.747340	-1.799148	-172.747340	-5.372957	-83.087480
3.800000	-5.218628	-85.276029	-1.873208	-174.974019	-1.873208	-174.974019	-5.218607	-85.308070
3.850000	-5.069882	-87.484995	-1.948343	-177.188569	-1.948343	-177.188569	-5.069854	-87.515802
3.900000	-4.926580	-89.680845	-2.024469	-179.390714	-2.024469	-179.390714	-4.926545	-89.710418
3.950000	-4.788571	-91.863355	-2.101502	178.419789	-2.101502	178.419789	-4.788530	-91.891692
4.000000	-4.655705	-94.032331	-2.179357	176.243148	-2.179357	176.243148	-4.655657	-94.059433
4.050000	-4.527830	-96.187615	-2.257947	174.079541	-2.257947	174.079541	-4.527777	-96.213481
4.100000	-4.404799	-98.329082	-2.337184	171.929112	-2.337184	171.929112	-4.404739	-98.353709
4.150000	-4.286463	-100.456636	-2.416982	169.791974	-2.416982	169.791974	-4.286397	-100.480024
4.200000	-4.172677	-102.570215	-2.497253	167.668208	-2.497253	167.668208	-4.172604	-102.592361
4.250000	-4.063296	-104.669787	-2.577909	165.557864	-2.577909	165.557864	-4.063217	-104.690690
4.300000	-3.958179	-106.755348	-2.658866	163.460966	-2.658866	163.460966	-3.958094	-106.775005
4.350000	-3.857186	-108.826926	-2.740039	161.377505	-2.740039	161.377505	-3.857095	-108.845334
4.400000	-3.760211	-110.884421	-2.821334	159.307593	-2.821334	159.307593	-3.760114	-110.901578
4.450000	-3.667118	-112.927919	-2.902668	157.251168	-2.902668	157.251168	-3.667015	-112.943820
4.500000	-3.577745	-114.957676	-2.983967	155.207997	-2.983967	155.207997	-3.577636	-114.972317
4.550000	-3.491962	-116.973821	-3.065151	153.177971	-3.065151	153.177971	-3.491847	-116.987200
4.600000	-3.409644	-118.976508	-3.146145	151.160959	-3.146145	151.160959	-3.409523	-118.988619
4.650000	-3.330669	-120.965908	-3.226873	149.156808	-3.226873	149.156808	-3.330542	-120.976746
4.700000	-3.254918	-122.942214	-3.307263	147.165348	-3.307263	147.165348	-3.254785	-122.951775
4.750000	-3.182275	-124.905636	-3.387245	145.186390	-3.387245	145.186390	-3.182136	-124.913914
4.800000	-3.112628	-126.856402	-3.466751	143.219728	-3.466751	143.219728	-3.112483	-126.863391
4.850000	-3.045867	-128.794755	-3.545716	141.265141	-3.545716	141.265141	-3.045717	-128.800448
4.900000	-2.981888	-130.720951	-3.624076	139.322396	-3.624076	139.322396	-2.981732	-130.725343
4.950000	-2.920588	-132.635260	-3.701771	137.391244	-3.701771	137.391244	-2.920426	-132.638344
5.000000	-2.861868	-134.537966	-3.778744	135.471427	-3.778744	135.471427	-2.861700	-134.539735
5.050000	-2.805677	-136.429121	-3.854906	133.562909	-3.854906	133.562909	-2.805503	-136.429567
5.100000	-2.751875	-138.309281	-3.930236	131.665166	-3.930236	131.665166	-2.751695	-138.308396
5.150000	-2.700374	-140.178758	-4.004683	129.777908	-4.004683	129.777908	-2.700189	-140.176533
5.200000	-2.651088	-142.037870	-4.078200	127.900842	-4.078200	127.900842	-2.650897	-142.034297
5.250000	-2.603934	-143.886942	-4.150741	126.033667	-4.150741	126.033667	-2.603737	-143.882013
5.300000	-2.558833	-145.726306	-4.222265	124.176077	-4.222265	124.176077	-2.558631	-145.720011
5.350000	-2.515709	-147.556297	-4.292730	122.327760	-4.292730	122.327760	-2.515500	-147.548626
5.400000	-2.474487	-149.377256	-4.362098	120.488402	-4.362098	120.488402	-2.474272	-149.368199
5.450000	-2.435097	-151.189524	-4.430334	118.657685	-4.430334	118.657685	-2.434877	-151.179071
5.500000	-2.397471	-152.993447	-4.497404	116.835289	-4.497404	116.835289	-2.397245	-152.981588
5.550000	-2.361544	-154.789373	-4.563277	115.020892	-4.563277	115.020892	-2.361312	-154.776096
5.600000	-2.327253	-156.577651	-4.627924	113.214169	-4.627924	113.214169	-2.327016	-156.562944
5.650000	-2.294553	-158.358553	-4.691298	111.414874	-4.691298	111.414874	-2.294310	-158.342406
5.700000	-2.263385	-160.132441	-4.753374	109.622670	-4.753374	109.622670	-2.263137	-160.114841
5.750000	-2.233678	-161.899745	-4.814148	107.837153	-4.814148	107.837153	-2.233425	-161.880679
5.800000	-2.205380	-163.660811	-4.873600	106.058000	-4.873600	106.058000	-2.205122	-163.640266
5.850000	-2.178440	-165.415986	-4.931709	104.284889	-4.931709	104.284889	-2.178176	-165.393951
5.900000	-2.152808	-167.165617	-4.988458	102.517497	-4.988458	102.517497	-2.152539	-167.142077
5.950000	-2.128439	-168.910046	-5.043832	100.755505	-5.043832	100.755505	-2.128164	-168.884987
6.000000	-2.105287	-170.649615	-5.097816	98.998596	-5.097816	98.998596	-2.105008	-170.623023
6.050000	-2.083311	-172.384661	-5.150398	97.246453	-5.150398	97.246453	-2.083027	-172.356522
6.100000	-2.062469	-174.115520	-5.201568	95.498764	-5.201568	95.498764	-2.062180	-174.085820
6.150000	-2.042722	-175.842524	-5.251315	93.755218	-5.251315	93.755218	-2.042428	-175.811248
6.200000	-2.024033	-177.566003	-5.299632	92.015508	-5.299632	92.015508	-2.023734	-177.533135
6.250000	-2.006365	-179.286281	-5.346513	90.279327	-5.346513	90.279327	-2.006062	-179.251806
6.300000	-1.989705	178.996375	-5.391916	88.546439	-5.391916	88.546439	-1.989397	179.032473
6.350000	-1.973997	177.281579	-5.435875	86.816467	-5.435875	86.816467	-1.973686	177.319317
6.400000	-1.959211	175.569019	-5.478388	85.089118	-5.478388	85.089118	-1.958896	175.608412
6.450000	-1.945317	173.858386	-5.519454	83.364099	-5.519454	83.364099	-1.944997	173.899450
6.500000	-1.932284	172.149376	-5.559072	81.641124	-5.559072	81.641124	-1.931961	172.192129
6.550000	-1.920087	170.441690	-5.597246	79.919909	-5.597246	79.919909	-1.919760	170.486149
6.600000	-1.908697	168.735035	-5.633977	78.200173	-5.633977	78.200173	-1.908367	168.781216
6.650000	-1.898091	167.029122	-5.669270	76.481640	-5.669270	76.481640	-1.897756	167.077043
6.700000	-1.888242	165.323667	-5.703130	74.764040	-5.703130	74.764040	-1.887904	165.373345
6.750000	-1.879128	163.618392	-5.735563	73.047103	-5.735563	73.047103	-1.878787	163.669844
6.800000	-1.870726	161.913024	-5.766576	71.330566	-5.766576	71.330566	-1.870383	161.966268
6.850000	-1.863015	160.207295	-5.796179	69.614170	-5.796179	69.614170	-1.862668	160.262349
6.900000	-1.855980	158.500936	-5.824363	67.897656	-5.824363	67.897656	-1.855631	158.557816
6.950000	-1.849602	156.793681	-5.851141	66.180765	-5.851141	66.180765	-1.849250	156.852407
7.000000	-1.843853	155.085289	-5.876541	64.463252	-5.876541	64.463252	-1.843499	155.145877
7.050000	-1.838715	153.375515	-5.900575	62.744877	-5.900575	62.744877	-1.838359	153.437983
7.100000	-1.834170	151.664125	-5.923256	61.025404	-5.923256	61.025404	-1.833812	151.728490
7.150000	-1.830201	149.950886	-5.944599	59.304600	-5.944599	59.304600	-1.829841	150.017167
7.200000	-1.826791	148.235577	-5.964621	57.582241	-5.964621	57.582241	-1.826430	148.303789
7.250000	-1.823925	146.517978	-5.983336	55.858104	-5.983336	55.858104	-1.823562	146.588140
7.300000	-1.821586	144.797881	-6.000763	54.131973	-6.000763	54.131973	-1.821222	144.870008
7.350000	-1.819760	143.075081	-6.016920	52.403638	-6.016920	52.403638	-1.819394	143.149191
7.400000	-1.818431	141.349383	-6.031825	50.672894	-6.031825	50.672894	-1.818065	141.425492
7.450000	-1.817586	139.620598	-6.045500	48.939539	-6.045500	48.939539	-1.817219	139.698720
7.500000	-1.817210	137.888542	-6.057965	47.203381	-6.057965	47.203381	-1.816843	137.968695
7.550000	-1.817306	136.152927	-6.069203	45.464128	-6.069203	45.464128	-1.816937	136.235125
7.600000	-1.817843	134.413690	-6.079278	43.721688	-6.079278	43.721688	-1.817474	134.497948
7.650000	-1.818809	132.670673	-6.088212	41.975887	-6.088212	41.975887	-1.818441	132.757006
7.700000	-1.820192	130.923728	-6.096031	40.226554	-6.096031	40.226554	-1.819824	131.012148
7.750000	-1.821959	129.172938	-6.102818	38.473733	-6.102818	38.473733	-1.821591	129.263457
7.800000	-1.824135	127.417770	-6.108491	36.716908	-6.108491	36.716908	-1.823768	127.510402
7.850000	-1.826692	125.658274	-6.113126	34.956086	-6.113126	34.956086	-1.826325	125.753030
7.900000	-1.829618	123.894331	-6.116749	33.191124	-6.116749	33.191124	-1.829253	123.991223
7.950000	-1.832902	122.125835	-6.119389	31.421889	-6.119389	31.421889	-1.832537	122.224871
8.000000	-1.836532	120.352684	-6.121076	29.648250	-6.121076	29.648250	-1.836169	120.453874
8.050000	-1.840497	118.574786	-6.121837	27.870089	-6.121837	27.870089	-1.840135	118.678139
8.100000	-1.844786	116.792061	-6.121704	26.087292	-6.121704	26.087292	-1.844425	116.897583
8.150000	-1.849391	115.004380	-6.120698	24.299701	-6.120698	24.299701	-1.849032	115.112078
8.200000	-1.854301	113.211678	-6.118852	22.507217	-6.118852	22.507217	-1.853944	113.321558
8.250000	-1.859501	111.413953	-6.116207	20.709803	-6.116207	20.709803	-1.859148	111.526019
8.300000	-1.864982	109.611161	-6.112795	18.907379	-6.112795	18.907379	-1.864631	109.725416
8.350000	-1.870740	107.803118	-6.108629	17.099726	-6.108629	17.099726	-1.870392	107.919565
8.400000	-1.876739	105.990324	-6.103814	15.287311	-6.103814	15.287311	-1.876393	106.108963
8.450000	-1.883006	104.171963	-6.098278	13.469272	-6.098278	13.469272	-1.882664	104.292795
8.500000	-1.889498	102.348724	-6.092143	11.646272	-6.092143	11.646272	-1.889160	102.471747
8.550000	-1.896224	100.520211	-6.085396	9.817868	-6.085396	9.817868	-1.895890	100.645423
8.600000	-1.903169	98.686537	-6.078082	7.984138	-6.078082	7.984138	-1.902838	98.813933
8.650000	-1.910314	96.847921	-6.070259	6.145270	-6.070259	6.145270	-1.909988	96.977498
8.700000	-1.917669	95.003904	-6.061911	4.300742	-6.061911	4.300742	-1.917347	95.135654
8.750000	-1.925194	93.155306	-6.053146	2.451381	-6.053146	2.451381	-1.924878	93.289223
8.800000	-1.932917	91.301116	-6.043907	0.596069	-6.043907	0.596069	-1.932606	91.437190
8.850000	-1.940793	89.442449	-6.034317	-1.264045	-6.034317	-1.264045	-1.940488	89.580672
8.900000	-1.948837	87.578618	-6.024352	-3.129745	-6.024352	-3.129745	-1.948537	87.718978
8.950000	-1.957023	85.710167	-6.014079	-5.000484	-6.014079	-5.000484	-1.956730	85.852652
9.000000	-1.965350	83.837002	-6.003522	-6.876412	-6.003522	-6.876412	-1.965062	83.981599
9.050000	-1.973809	81.959129	-5.992710	-8.757567	-5.992710	-8.757567	-1.973528	82.105825
9.100000	-1.982382	80.077005	-5.981694	-10.643491	-5.981694	-10.643491	-1.982109	80.225785
9.150000	-1.991076	78.190145	-5.970480	-12.534778	-5.970480	-12.534778	-1.990810	78.340992
9.200000	-1.999865	76.299423	-5.959132	-14.430488	-5.959132	-14.430488	-1.999607	76.452322
9.250000	-2.008758	74.404162	-5.947655	-16.331455	-5.947655	-16.331455	-2.008507	74.559094
9.300000	-2.017732	72.505209	-5.936100	-18.236752	-5.936100	-18.236752	-2.017489	72.662157
9.350000	-2.026788	70.602254	-5.924488	-20.146801	-5.924488	-20.146801	-2.026553	70.761200
9.400000	-2.035916	68.695670	-5.912853	-22.061222	-5.912853	-22.061222	-2.035689	68.856594
9.450000	-2.045108	66.785615	-5.901224	-23.979887	-5.901224	-23.979887	-2.044889	66.948499
9.500000	-2.054360	64.872058	-5.889630	-25.902908	-5.889630	-25.902908	-2.054150	65.036883
9.550000	-2.063663	62.955548	-5.878093	-27.829671	-5.878093	-27.829671	-2.063461	63.122296
9.600000	-2.073016	61.035730	-5.866652	-29.760711	-5.866652	-29.760711	-2.072822	61.204379
9.650000	-2.082409	59.113352	-5.855315	-31.695140	-5.855315	-31.695140	-2.082223	59.283888
9.700000	-2.091841	57.188130	-5.844127	-33.633434	-5.844127	-33.633434	-2.091662	57.360533
9.750000	-2.101307	55.260603	-5.833091	-35.574956	-5.833091	-35.574956	-2.101134	55.434856
9.800000	-2.110803	53.330785	-5.822243	-37.519799	-5.822243	-37.519799	-2.110637	53.506873
9.850000	-2.120328	51.398919	-5.811599	-39.467732	-5.811599	-39.467732	-2.120167	51.576828
9.900000	-2.129878	49.465283	-5.801171	-41.418468	-5.801171	-41.418468	-2.129721	49.644999
9.950000	-2.139455	47.529917	-5.790999	-43.372103	-5.790999	-43.372103	-2.139301	47.711430
10.000000	-2.149055	45.593262	-5.781063	-45.328058	-5.781063	-45.328058	-2.148903	45.776561
