! freq	dB(S11)	phase(S11)	dB(S12)	phase(S12)	
!     	dB(S21)	phase(S21)	dB(S22)	phase(S22)	
!S-par simulation data
#  GHz  S  DB  R 50
0.000000	-90.428350	0.000000	-0.000261	0.000000	-0.000261	0.000000	-90.428350	0.000000
0.050000	-45.187031	-91.295786	-0.005029	-1.551656	-0.005029	-1.551656	-45.140122	-91.391850
0.100000	-39.153853	-92.988543	-0.008464	-3.067204	-0.008464	-3.067204	-39.123416	-93.252380
0.150000	-35.623805	-94.512612	-0.010542	-4.582150	-0.010542	-4.582150	-35.607891	-95.005636
0.200000	-33.123652	-95.980728	-0.012514	-6.098529	-0.012514	-6.098529	-33.117952	-96.728178
0.250000	-31.190136	-97.428836	-0.014718	-7.615365	-0.014718	-7.615365	-31.191170	-98.434944
0.300000	-29.616022	-98.869984	-0.017243	-9.131962	-0.017243	-9.131962	-29.621505	-100.130628
0.350000	-28.290924	-100.308646	-0.020123	-10.647844	-0.020123	-10.647844	-28.299426	-101.816729
0.400000	-27.148329	-101.746306	-0.023338	-12.162755	-0.023338	-12.162755	-27.158971	-103.494693
0.450000	-26.145603	-103.183180	-0.026875	-13.676506	-0.026875	-13.676506	-26.157829	-105.165206
0.500000	-25.254001	-104.619032	-0.030726	-15.188895	-0.030726	-15.188895	-25.267440	-106.828579
0.550000	-24.452516	-106.053554	-0.034862	-16.699868	-0.034862	-16.699868	-24.466907	-108.485656
0.600000	-23.725749	-107.486402	-0.039258	-18.209375	-0.039258	-18.209375	-23.740888	-110.137088
0.650000	-23.062299	-108.917156	-0.043901	-19.717329	-0.043901	-19.717329	-23.078008	-111.783305
0.700000	-22.453128	-110.345460	-0.048769	-21.223702	-0.048769	-21.223702	-22.469235	-113.424891
0.750000	-21.890859	-111.771065	-0.053837	-22.728526	-0.053837	-22.728526	-21.907199	-115.062514
0.800000	-21.369808	-113.193648	-0.059090	-24.231778	-0.059090	-24.231778	-21.386214	-116.696630
0.850000	-20.885494	-114.612823	-0.064516	-25.733413	-0.064516	-25.733413	-20.901789	-118.327631
0.900000	-20.433659	-116.028493	-0.070090	-27.233511	-0.070090	-27.233511	-20.449679	-119.956105
0.950000	-20.011023	-117.440447	-0.075800	-28.732087	-0.075800	-28.732087	-20.026606	-121.582453
1.000000	-19.615184	-118.848277	-0.081635	-30.229078	-0.081635	-30.229078	-19.630168	-123.206969
1.050000	-19.243411	-120.252003	-0.087575	-31.724578	-0.087575	-31.724578	-19.257655	-124.830101
1.100000	-18.893624	-121.651505	-0.093609	-33.218617	-0.093609	-33.218617	-18.907006	-126.452174
1.150000	-18.564303	-123.046504	-0.099724	-34.711163	-0.099724	-34.711163	-18.576708	-128.073467
1.200000	-18.253784	-124.436972	-0.105908	-36.202267	-0.105908	-36.202267	-18.265124	-129.694284
1.250000	-17.960559	-125.822938	-0.112146	-37.691984	-0.112146	-37.691984	-17.970768	-131.314899
1.300000	-17.683559	-127.204268	-0.118427	-39.180317	-0.118427	-39.180317	-17.692593	-132.935563
1.350000	-17.421840	-128.580854	-0.124739	-40.667271	-0.124739	-40.667271	-17.429671	-134.556528
1.400000	-17.174196	-129.952870	-0.131069	-42.152930	-0.131069	-42.152930	-17.180822	-136.178017
1.450000	-16.939805	-131.320314	-0.137405	-43.637325	-0.137405	-43.637325	-16.945241	-137.800248
1.500000	-16.718246	-132.682977	-0.143736	-45.120429	-0.143736	-45.120429	-16.722522	-139.423495
1.550000	-16.508482	-134.041145	-0.150049	-46.602350	-0.150049	-46.602350	-16.511643	-141.047925
1.600000	-16.309904	-135.394859	-0.156334	-48.083129	-0.156334	-48.083129	-16.312006	-142.673748
1.650000	-16.122246	-136.743964	-0.162578	-49.562762	-0.162578	-49.562762	-16.123353	-144.301252
1.700000	-15.944843	-138.088620	-0.168768	-51.041331	-0.168768	-51.041331	-15.945023	-145.930622
1.750000	-15.777143	-139.428934	-0.174897	-52.518901	-0.174897	-52.518901	-15.776468	-147.562048
1.800000	-15.618837	-140.764868	-0.180951	-53.995514	-0.180951	-53.995514	-15.617378	-149.195786
1.850000	-15.469558	-142.096437	-0.186921	-55.471227	-0.186921	-55.471227	-15.467386	-150.832072
1.900000	-15.329046	-143.423597	-0.192793	-56.946094	-0.192793	-56.946094	-15.326225	-152.471185
1.950000	-15.197000	-144.746335	-0.198559	-58.420182	-0.198559	-58.420182	-15.193591	-154.113385
2.000000	-15.073080	-146.064668	-0.204208	-59.893568	-0.204208	-59.893568	-15.069136	-155.758904
2.050000	-14.957041	-147.378552	-0.209731	-61.366324	-0.209731	-61.366324	-14.952607	-157.408015
2.100000	-14.848660	-148.687925	-0.215119	-62.838525	-0.215119	-62.838525	-14.843773	-159.061004
2.150000	-14.747735	-149.992707	-0.220363	-64.310247	-0.220363	-64.310247	-14.742423	-160.718167
2.200000	-14.654082	-151.292803	-0.225455	-65.781573	-0.225455	-65.781573	-14.648364	-162.379815
2.250000	-14.567536	-152.588099	-0.230386	-67.252585	-0.230386	-67.252585	-14.561423	-164.046272
2.300000	-14.487948	-153.878467	-0.235150	-68.723369	-0.235150	-68.723369	-14.481441	-165.717880
2.350000	-14.415182	-155.163758	-0.239739	-70.194014	-0.239739	-70.194014	-14.408275	-167.394995
2.400000	-14.349117	-156.443810	-0.244146	-71.664611	-0.244146	-71.664611	-14.341796	-169.077991
2.450000	-14.289645	-157.718443	-0.248367	-73.135255	-0.248367	-73.135255	-14.281887	-170.767260
2.500000	-14.236671	-158.987458	-0.252394	-74.606039	-0.252394	-74.606039	-14.228446	-172.463216
2.550000	-14.190244	-160.250507	-0.256220	-76.077070	-0.256220	-76.077070	-14.181513	-174.166457
2.600000	-14.150156	-161.507474	-0.259845	-77.548443	-0.259845	-77.548443	-14.140876	-175.877297
2.650000	-14.116345	-162.758103	-0.263264	-79.020259	-0.263264	-79.020259	-14.106465	-177.596216
2.700000	-14.088758	-164.002115	-0.266476	-80.492621	-0.266476	-80.492621	-14.078220	-179.323724
2.750000	-14.067354	-165.239208	-0.269477	-81.965631	-0.269477	-81.965631	-14.056092	178.939643
2.800000	-14.052098	-166.469056	-0.272267	-83.439395	-0.272267	-83.439395	-14.040042	177.193322
2.850000	-14.042967	-167.691302	-0.274844	-84.914017	-0.274844	-84.914017	-14.030038	175.436713
2.900000	-14.039947	-168.905563	-0.277208	-86.389602	-0.277208	-86.389602	-14.026058	173.669186
2.950000	-14.043032	-170.111423	-0.279360	-87.866256	-0.279360	-87.866256	-14.028090	171.890072
3.000000	-14.052224	-171.308427	-0.281301	-89.344086	-0.281301	-89.344086	-14.036127	170.098661
3.050000	-14.067537	-172.496085	-0.283033	-90.823197	-0.283033	-90.823197	-14.050174	168.294202
3.100000	-14.088991	-173.673861	-0.284559	-92.303695	-0.284559	-92.303695	-14.070241	166.475896
3.150000	-14.116682	-174.841052	-0.285879	-93.785701	-0.285879	-93.785701	-14.096412	164.642725
3.200000	-14.150648	-175.996999	-0.286998	-95.269323	-0.286998	-95.269323	-14.128713	162.793749
3.250000	-14.190870	-177.141120	-0.287923	-96.754648	-0.287923	-96.754648	-14.167112	160.928160
3.300000	-14.237403	-178.272654	-0.288659	-98.241778	-0.288659	-98.241778	-14.211652	159.044923
3.350000	-14.290311	-179.390772	-0.289212	-99.730812	-0.289212	-99.730812	-14.262379	157.142929
3.400000	-14.349666	179.505435	-0.289590	-101.221848	-0.289590	-101.221848	-14.319348	155.220994
3.450000	-14.415550	178.416961	-0.289799	-102.714983	-0.289799	-102.714983	-14.382620	153.277845
3.500000	-14.488052	177.344893	-0.289848	-104.210312	-0.289848	-104.210312	-14.452262	151.312115
3.550000	-14.567270	176.290425	-0.289747	-105.707924	-0.289747	-105.707924	-14.528348	149.322334
3.600000	-14.653311	175.254866	-0.289503	-107.207911	-0.289503	-107.207911	-14.610955	147.306917
3.650000	-14.746288	174.239651	-0.289128	-108.710357	-0.289128	-108.710357	-14.700167	145.264154
3.700000	-14.846324	173.246359	-0.288632	-110.215345	-0.288632	-110.215345	-14.796070	143.192197
3.750000	-14.953548	172.276726	-0.288027	-111.722955	-0.288027	-111.722955	-14.898753	141.089048
3.800000	-15.068224	171.333267	-0.287322	-113.233324	-0.287322	-113.233324	-15.008429	138.951759
3.850000	-15.190363	170.417588	-0.286532	-114.746466	-0.286532	-114.746466	-15.125066	136.778641
3.900000	-15.320112	169.532027	-0.285671	-116.262449	-0.285671	-116.262449	-15.248753	134.567125
3.950000	-15.457621	168.679165	-0.284752	-117.781338	-0.284752	-117.781338	-15.379577	132.314411
4.000000	-15.603041	167.861852	-0.283789	-119.303190	-0.283789	-119.303190	-15.517620	130.017455
4.050000	-15.756525	167.083240	-0.282796	-120.828062	-0.282796	-120.828062	-15.662951	127.672936
4.100000	-15.918220	166.346818	-0.281788	-122.356004	-0.281788	-122.356004	-15.815629	125.277232
4.150000	-16.088268	165.656445	-0.280780	-123.887059	-0.280780	-123.887059	-15.975693	122.826392
4.200000	-16.266798	165.016400	-0.279789	-125.421269	-0.279789	-125.421269	-16.143160	120.316104
4.250000	-16.453924	164.431420	-0.278829	-126.958668	-0.278829	-126.958668	-16.318014	117.741664
4.300000	-16.649732	163.906757	-0.277918	-128.499284	-0.277918	-128.499284	-16.500197	115.097945
4.350000	-16.854276	163.448227	-0.277070	-130.043143	-0.277070	-130.043143	-16.689604	112.379365
4.400000	-17.067597	163.063138	-0.276305	-131.590297	-0.276305	-131.590297	-16.886088	109.578906
4.450000	-17.289622	162.758880	-0.275639	-133.140760	-0.275639	-133.140760	-17.089375	106.689754
4.500000	-17.520169	162.542579	-0.275089	-134.694500	-0.275089	-134.694500	-17.299080	103.705659
4.550000	-17.758993	162.422944	-0.274671	-136.251520	-0.274671	-136.251520	-17.514724	100.618975
4.600000	-18.005715	162.409520	-0.274402	-137.811812	-0.274402	-137.811812	-17.735685	97.421558
4.650000	-18.259792	162.512706	-0.274299	-139.375364	-0.274299	-139.375364	-17.961160	94.104817
4.700000	-18.520466	162.743749	-0.274379	-140.942159	-0.274379	-140.942159	-18.190136	90.659814
4.750000	-18.786726	163.114679	-0.274659	-142.512172	-0.274659	-142.512172	-18.421356	87.077406
4.800000	-19.057240	163.638181	-0.275154	-144.085372	-0.275154	-144.085372	-18.653273	83.348463
4.850000	-19.330298	164.327365	-0.275883	-145.661724	-0.275883	-145.661724	-18.884018	79.464175
4.900000	-19.603739	165.195406	-0.276859	-147.241183	-0.276859	-147.241183	-19.111363	75.416460
4.950000	-19.874882	166.255011	-0.278100	-148.823703	-0.278100	-148.823703	-19.332694	71.198487
5.000000	-20.140463	167.517676	-0.279621	-150.409227	-0.279621	-150.409227	-19.545004	66.805320
5.050000	-20.396125	168.997461	-0.281442	-151.997759	-0.281442	-151.997759	-19.744456	62.230849
5.100000	-20.637619	170.695518	-0.283573	-153.589167	-0.283573	-153.589167	-19.927628	57.480389
5.150000	-20.859814	172.612405	-0.286027	-155.183378	-0.286027	-155.183378	-20.090552	52.559857
5.200000	-21.057135	174.742129	-0.288817	-156.780315	-0.288817	-156.780315	-20.229171	47.480328
5.250000	-21.223788	177.070731	-0.291957	-158.379896	-0.291957	-158.379896	-20.339527	42.258534
5.300000	-21.354094	179.575264	-0.295458	-159.982033	-0.295458	-159.982033	-20.417993	36.916999
5.350000	-21.442894	-177.776505	-0.299332	-161.586634	-0.299332	-161.586634	-20.461522	31.483663
5.400000	-21.486002	-175.025398	-0.303588	-163.193602	-0.303588	-163.193602	-20.467881	25.990969
5.450000	-21.480616	-172.218995	-0.308237	-164.802836	-0.308237	-164.802836	-20.435843	20.474410
5.500000	-21.425624	-169.408805	-0.313288	-166.414231	-0.313288	-166.414231	-20.365289	14.970698
5.550000	-21.321732	-166.646777	-0.318749	-168.027678	-0.318749	-168.027678	-20.257226	9.515770
5.600000	-21.171380	-163.981746	-0.324627	-169.643064	-0.324627	-169.643064	-20.113693	4.142892
5.650000	-20.978016	-161.458279	-0.330933	-171.260294	-0.330933	-171.260294	-19.937228	-1.117417
5.700000	-20.746747	-159.111566	-0.337671	-172.879245	-0.337671	-172.879245	-19.731447	-6.240804
5.750000	-20.483702	-156.964511	-0.344843	-174.499776	-0.344843	-174.499776	-19.500662	-11.210906
5.800000	-20.194676	-155.032434	-0.352451	-176.121766	-0.352451	-176.121766	-19.248924	-16.015846
5.850000	-19.885299	-153.322497	-0.360497	-177.745091	-0.360497	-177.745091	-18.980222	-20.648976
5.900000	-19.560779	-151.835086	-0.368984	-179.369624	-0.368984	-179.369624	-18.698322	-25.108153
5.950000	-19.225765	-150.565345	-0.377910	179.004760	-0.377910	179.004760	-18.406677	-29.394908
6.000000	-18.884274	-149.504647	-0.387275	177.378187	-0.387275	177.378187	-18.108360	-33.513602
6.050000	-18.539693	-148.641880	-0.397077	175.750785	-0.397077	175.750785	-17.806053	-37.470653
6.100000	-18.194813	-147.964491	-0.407314	174.122679	-0.407314	174.122679	-17.502046	-41.273862
6.150000	-17.851890	-147.459288	-0.417981	172.493996	-0.417981	172.493996	-17.198262	-44.931857
6.200000	-17.512709	-147.113027	-0.429074	170.864860	-0.429074	170.864860	-16.896294	-48.453663
6.250000	-17.178661	-146.912814	-0.440586	169.235393	-0.440586	169.235393	-16.597437	-51.848374
6.300000	-16.850695	-146.849001	-0.452519	167.605716	-0.452519	167.605716	-16.302626	-55.122548
6.350000	-16.529755	-146.906938	-0.464856	165.975955	-0.464856	165.975955	-16.012829	-58.287523
6.400000	-16.216396	-147.075995	-0.477589	164.346225	-0.477589	164.346225	-15.728674	-61.351428
6.450000	-15.910996	-147.346394	-0.490707	162.716640	-0.490707	162.716640	-15.450633	-64.321902
6.500000	-15.613794	-147.709196	-0.504199	161.087310	-0.504199	161.087310	-15.179053	-67.206064
6.550000	-15.324920	-148.156259	-0.518054	159.458342	-0.518054	159.458342	-14.914178	-70.010509
6.600000	-15.044415	-148.680191	-0.532260	157.829838	-0.532260	157.829838	-14.656163	-72.741325
6.650000	-14.772257	-149.274295	-0.546803	156.201896	-0.546803	156.201896	-14.405099	-75.404110
6.700000	-14.508371	-149.932505	-0.561669	154.574610	-0.561669	154.574610	-14.161019	-78.004003
6.750000	-14.252642	-150.649336	-0.576844	152.948070	-0.576844	152.948070	-13.923912	-80.545711
6.800000	-14.004928	-151.419828	-0.592312	151.322360	-0.592312	151.322360	-13.693732	-83.033544
6.850000	-13.765066	-152.239491	-0.608057	149.697559	-0.608057	149.697559	-13.470406	-85.471447
6.900000	-13.532894	-153.104711	-0.624066	148.073751	-0.624066	148.073751	-13.253854	-87.862564
6.950000	-13.308230	-154.011695	-0.640319	146.451008	-0.640319	146.451008	-13.043973	-90.210303
7.000000	-13.090865	-154.956641	-0.656798	144.829381	-0.656798	144.829381	-12.840623	-92.518176
7.050000	-12.880599	-155.936541	-0.673484	143.208925	-0.673484	143.208925	-12.643672	-94.788942
7.100000	-12.677234	-156.948664	-0.690358	141.589692	-0.690358	141.589692	-12.452979	-97.025137
7.150000	-12.480571	-157.990526	-0.707403	139.971726	-0.707403	139.971726	-12.268400	-99.229091
7.200000	-12.290415	-159.059863	-0.724599	138.355064	-0.724599	138.355064	-12.089790	-101.402947
7.250000	-12.106573	-160.154615	-0.741927	136.739740	-0.741927	136.739740	-11.917001	-103.548686
7.300000	-11.928858	-161.272900	-0.759368	135.125777	-0.759368	135.125777	-11.749887	-105.668132
7.350000	-11.757086	-162.413002	-0.776902	133.513197	-0.776902	133.513197	-11.588303	-107.762977
7.400000	-11.591079	-163.573349	-0.794509	131.902013	-0.794509	131.902013	-11.432104	-109.834787
7.450000	-11.430663	-164.752503	-0.812170	130.292232	-0.812170	130.292232	-11.281150	-111.885018
7.500000	-11.275670	-165.949148	-0.829866	128.683855	-0.829866	128.683855	-11.135300	-113.915025
7.550000	-11.125995	-167.162405	-0.847576	127.076907	-0.847576	127.076907	-10.994477	-115.925686
7.600000	-10.981425	-168.390792	-0.865281	125.471347	-0.865281	125.471347	-10.858492	-117.918615
7.650000	-10.841807	-169.633295	-0.882962	123.867157	-0.882962	123.867157	-10.727214	-119.894914
7.700000	-10.706995	-170.888985	-0.900599	122.264314	-0.900599	122.264314	-10.600517	-121.855617
7.750000	-10.576846	-172.157004	-0.918174	120.662790	-0.918174	120.662790	-10.478278	-123.801695
7.800000	-10.451223	-173.436563	-0.935669	119.062550	-0.935669	119.062550	-10.360377	-125.734065
7.850000	-10.329995	-174.726936	-0.953065	117.463555	-0.953065	117.463555	-10.246699	-127.653595
7.900000	-10.213033	-176.027451	-0.970345	115.865761	-0.970345	115.865761	-10.137130	-129.561106
7.950000	-10.100216	-177.337489	-0.987491	114.269117	-0.987491	114.269117	-10.031563	-131.457375
8.000000	-9.991424	-178.656479	-1.004487	112.673570	-1.004487	112.673570	-9.929889	-133.343145
8.050000	-9.886542	-179.983891	-1.021316	111.079059	-1.021316	111.079059	-9.832008	-135.219122
8.100000	-9.785460	178.680762	-1.037961	109.485522	-1.037961	109.485522	-9.737819	-137.085980
8.150000	-9.688100	177.337856	-1.054406	107.892900	-1.054406	107.892900	-9.647254	-138.944281
8.200000	-9.594357	175.987825	-1.070634	106.301119	-1.070634	106.301119	-9.560219	-140.794665
8.250000	-9.504103	174.631134	-1.086633	104.710093	-1.086633	104.710093	-9.476594	-142.637816
8.300000	-9.417242	173.268143	-1.102390	103.119744	-1.102390	103.119744	-9.396291	-144.474307
8.350000	-9.333682	171.899183	-1.117891	101.529988	-1.117891	101.529988	-9.319226	-146.304689
8.400000	-9.253331	170.524564	-1.133124	99.940742	-1.133124	99.940742	-9.245314	-148.129493
8.450000	-9.176103	169.144573	-1.148077	98.351918	-1.148077	98.351918	-9.174475	-149.949237
8.500000	-9.101912	167.759477	-1.162739	96.763426	-1.162739	96.763426	-9.106632	-151.764418
8.550000	-9.030678	166.369527	-1.177098	95.175174	-1.177098	95.175174	-9.041708	-153.575521
8.600000	-8.962321	164.974953	-1.191145	93.587068	-1.191145	93.587068	-8.979629	-155.383017
8.650000	-8.896764	163.575973	-1.204869	91.999015	-1.204869	91.999015	-8.920324	-157.187364
8.700000	-8.833932	162.172792	-1.218263	90.410917	-1.218263	90.410917	-8.863723	-158.989008
8.750000	-8.773752	160.765598	-1.231317	88.822678	-1.231317	88.822678	-8.809757	-160.788382
8.800000	-8.716201	159.354491	-1.244016	87.234195	-1.244016	87.234195	-8.758409	-162.585882
8.850000	-8.661163	157.939726	-1.256361	85.645373	-1.256361	85.645373	-8.709563	-164.381968
8.900000	-8.608569	156.521461	-1.268345	84.056116	-1.268345	84.056116	-8.663156	-166.177046
8.950000	-8.558356	155.099844	-1.279962	82.466328	-1.279962	82.466328	-8.619127	-167.971509
9.000000	-8.510460	153.675016	-1.291207	80.875915	-1.291207	80.875915	-8.577415	-169.765744
9.050000	-8.464819	152.247113	-1.302075	79.284784	-1.302075	79.284784	-8.537960	-171.560127
9.100000	-8.421373	150.816261	-1.312561	77.692845	-1.312561	77.692845	-8.500704	-173.355029
9.150000	-8.380063	149.382582	-1.322661	76.100010	-1.322661	76.100010	-8.465589	-175.150810
9.200000	-8.340831	147.946194	-1.332373	74.506193	-1.332373	74.506193	-8.432560	-176.947825
9.250000	-8.303622	146.507208	-1.341691	72.911313	-1.341691	72.911313	-8.401560	-178.746418
9.300000	-8.268380	145.065733	-1.350615	71.315291	-1.350615	71.315291	-8.372535	179.453073
9.350000	-8.235051	143.621874	-1.359140	69.718055	-1.359140	69.718055	-8.345430	177.650317
9.400000	-8.203601	142.175710	-1.367259	68.119522	-1.367259	68.119522	-8.320211	175.844960
9.450000	-8.173976	140.727343	-1.374971	66.519626	-1.374971	66.519626	-8.296823	174.036677
9.500000	-8.146107	139.276895	-1.382278	64.918325	-1.382278	64.918325	-8.275194	172.225190
9.550000	-8.119943	137.824463	-1.389176	63.315569	-1.389176	63.315569	-8.255270	170.410201
9.600000	-8.095436	136.370141	-1.395663	61.711316	-1.395663	61.711316	-8.237000	168.591420
9.650000	-8.072536	134.914021	-1.401736	60.105531	-1.401736	60.105531	-8.220331	166.768565
9.700000	-8.051197	133.456198	-1.407393	58.498189	-1.407393	58.498189	-8.205212	164.941366
9.750000	-8.031370	131.996763	-1.412629	56.889273	-1.412629	56.889273	-8.191588	163.109557
9.800000	-8.013010	130.535809	-1.417441	55.278777	-1.417441	55.278777	-8.179409	161.272886
9.850000	-7.996070	129.073428	-1.421823	53.666705	-1.421823	53.666705	-8.168621	159.431109
9.900000	-7.980507	127.609715	-1.425770	52.053075	-1.425770	52.053075	-8.159171	157.583992
9.950000	-7.966274	126.144762	-1.429275	50.437915	-1.429275	50.437915	-8.151007	155.731312
10.000000	-7.953327	124.678664	-1.432330	48.821267	-1.432330	48.821267	-8.144074	153.872858
