! freq	dB(S11)	phase(S11)	dB(S12)	phase(S12)	
!     	dB(S21)	phase(S21)	dB(S22)	phase(S22)	
!S-par simulation data
#  GHz  S  DB  R 50
0.000000	-81.302361	0.000000	-0.000748	0.000000	-0.000748	0.000000	-81.302361	0.000000
0.050000	-34.181997	-93.860574	-0.008784	-4.677541	-0.008784	-4.677541	-34.190982	-95.021434
0.100000	-28.220172	-98.134717	-0.022235	-9.294680	-0.022235	-9.294680	-28.229075	-100.450433
0.150000	-24.778873	-102.329270	-0.036422	-13.886750	-0.036422	-13.886750	-24.788160	-105.794660
0.200000	-22.374827	-106.475408	-0.052421	-18.466349	-0.052421	-18.466349	-22.384666	-111.087358
0.250000	-20.543422	-110.572914	-0.070759	-23.032863	-0.070759	-23.032863	-20.553680	-116.328424
0.300000	-19.078777	-114.627027	-0.091355	-27.583990	-0.091355	-27.583990	-19.089202	-121.522427
0.350000	-17.871523	-118.644885	-0.113866	-32.118048	-0.113866	-32.118048	-17.881854	-126.675728
0.400000	-16.856992	-122.632233	-0.137879	-36.633939	-0.137879	-36.633939	-16.867001	-131.793250
0.450000	-15.993685	-126.593276	-0.162953	-41.131104	-0.162953	-41.131104	-16.003182	-136.878337
0.500000	-15.253304	-130.531102	-0.188647	-45.609420	-0.188647	-45.609420	-15.262136	-141.933170
0.550000	-14.616112	-134.447974	-0.214522	-50.068953	-0.214522	-50.068953	-14.624149	-146.958942
0.600000	-14.066993	-138.346196	-0.240148	-54.510349	-0.240148	-54.510349	-14.074127	-151.956887
0.650000	-13.595385	-142.227720	-0.265094	-58.934223	-0.265094	-58.934223	-13.601518	-156.927552
0.700000	-13.191494	-146.095248	-0.288981	-63.342149	-0.288981	-63.342149	-13.196539	-161.872504
0.750000	-12.850382	-149.950892	-0.311374	-67.735019	-0.311374	-67.735019	-12.854246	-166.791710
0.800000	-12.565256	-153.797932	-0.331970	-72.115109	-0.331970	-72.115109	-12.567848	-171.687030
0.850000	-12.333386	-157.639423	-0.350386	-76.484155	-0.350386	-76.484155	-12.334604	-176.558807
0.900000	-12.150793	-161.479101	-0.366382	-80.844729	-0.366382	-80.844729	-12.150524	178.591467
0.950000	-12.015845	-165.321009	-0.379684	-85.199340	-0.379684	-85.199340	-12.013959	173.763141
1.000000	-11.926765	-169.169602	-0.390117	-89.550852	-0.390117	-89.550852	-11.923109	168.955302
1.050000	-11.882647	-173.029775	-0.397551	-93.902259	-0.397551	-93.902259	-11.877042	164.167407
1.100000	-11.883669	-176.907079	-0.401883	-98.256708	-0.401883	-98.256708	-11.875897	159.399524
1.150000	-11.929524	179.192869	-0.403146	-102.617321	-0.403146	-102.617321	-11.919328	154.651808
1.200000	-12.022353	175.262817	-0.401316	-106.987528	-0.401316	-106.987528	-12.009411	149.926052
1.250000	-12.162505	171.296433	-0.396592	-111.370189	-0.396592	-111.370189	-12.146428	145.223936
1.300000	-12.354342	167.283699	-0.389038	-115.769010	-0.389038	-115.769010	-12.334627	140.550385
1.350000	-12.599507	163.216779	-0.378988	-120.186372	-0.378988	-120.186372	-12.575530	135.910178
1.400000	-12.904069	159.082327	-0.366660	-124.625737	-0.366660	-124.625737	-12.875004	131.313211
1.450000	-13.272745	154.868011	-0.352453	-129.089205	-0.352453	-129.089205	-13.237513	126.770970
1.500000	-13.713968	150.554770	-0.336743	-133.579528	-0.336743	-133.579528	-13.671097	122.302536
1.550000	-14.237112	146.120408	-0.319993	-138.098488	-0.319993	-138.098488	-14.184567	117.933240
1.600000	-14.855092	141.533335	-0.302699	-142.647758	-0.302699	-142.647758	-14.789961	113.701042
1.650000	-15.585350	136.747440	-0.285392	-147.228727	-0.285392	-147.228727	-15.503301	109.663405
1.700000	-16.450228	131.698724	-0.268628	-151.841688	-0.268628	-151.841688	-16.344607	105.902861
1.750000	-17.483397	126.273014	-0.253005	-156.487509	-0.253005	-156.487509	-17.343266	102.564078
1.800000	-18.729730	120.303054	-0.239066	-161.164927	-0.239066	-161.164927	-18.536362	99.858868
1.850000	-20.261435	113.425410	-0.227463	-165.874120	-0.227463	-165.874120	-19.979108	98.227385
1.900000	-22.184795	104.999989	-0.218659	-170.612436	-0.218659	-170.612436	-21.740580	98.398271
1.950000	-24.664060	93.336761	-0.213276	-175.378684	-0.213276	-175.378684	-23.887709	102.087592
2.000000	-27.850292	74.225759	-0.211688	179.830496	-0.211688	179.830496	-26.339351	112.597215
2.050000	-30.841309	37.250765	-0.214371	175.017845	-0.214371	175.017845	-28.186913	134.699914
2.100000	-29.868758	-10.886232	-0.221596	170.187231	-0.221596	170.187231	-27.603093	162.231461
2.150000	-26.345638	-40.060236	-0.233603	165.342577	-0.233603	165.342577	-25.176125	179.851754
2.200000	-23.259515	-55.711463	-0.250524	160.488117	-0.250524	160.488117	-22.636956	-172.700601
2.250000	-20.848944	-66.021176	-0.272309	155.628325	-0.272309	155.628325	-20.475327	-170.618174
2.300000	-18.930044	-73.910483	-0.298923	150.767584	-0.298923	150.767584	-18.681602	-171.317415
2.350000	-17.361365	-80.584887	-0.330006	145.910152	-0.330006	145.910152	-17.182921	-173.499975
2.400000	-16.051573	-86.532443	-0.365331	141.060275	-0.365331	141.060275	-15.915158	-176.588190
2.450000	-14.940054	-92.038170	-0.404284	136.221294	-0.404284	136.221294	-14.830499	179.776914
2.500000	-13.987516	-97.234900	-0.446382	131.396774	-0.446382	131.396774	-13.895680	175.771680
2.550000	-13.164574	-102.218121	-0.490865	126.588800	-0.490865	126.588800	-13.084748	171.524688
2.600000	-12.451595	-107.039265	-0.537007	121.799527	-0.537007	121.799527	-12.379910	167.108589
2.650000	-11.832758	-111.738206	-0.583957	117.029666	-0.583957	117.029666	-11.766508	162.578054
2.700000	-11.296850	-116.341230	-0.630831	112.279435	-0.630831	112.279435	-11.234016	157.968985
2.750000	-10.835090	-120.869073	-0.676707	107.547992	-0.676707	107.547992	-10.774094	153.307604
2.800000	-10.440376	-125.339188	-0.720662	102.833363	-0.720662	102.833363	-10.379920	148.613232
2.850000	-10.108324	-129.765669	-0.761715	98.132914	-0.761715	98.132914	-10.047256	143.899453
2.900000	-9.834133	-134.163117	-0.799027	93.442478	-0.799027	93.442478	-9.771401	139.176895
2.950000	-9.616754	-138.544498	-0.831574	88.757269	-0.831574	88.757269	-9.551284	134.453178
3.000000	-9.453112	-142.924091	-0.858695	84.071122	-0.858695	84.071122	-9.383818	129.734237
3.050000	-9.344744	-147.317007	-0.879416	79.376626	-0.879416	79.376626	-9.270374	125.025292
3.100000	-9.290910	-151.738966	-0.893264	74.665726	-0.893264	74.665726	-9.210060	120.330656
3.150000	-9.295201	-156.209162	-0.899505	69.928309	-0.899505	69.928309	-9.206128	115.655956
3.200000	-9.360424	-160.747676	-0.897845	65.153993	-0.897845	65.153993	-9.260978	111.007688
3.250000	-9.492842	-165.379822	-0.887961	60.330233	-0.887961	60.330233	-9.380202	106.396156
3.300000	-9.700425	-170.135023	-0.869841	55.443612	-0.869841	55.443612	-9.570807	101.836761
3.350000	-9.994152	-175.049292	-0.843751	50.479600	-0.843751	50.479600	-9.842312	97.353667
3.400000	-10.389797	179.830440	-0.810233	45.422061	-0.810233	45.422061	-10.208155	92.985911
3.450000	-10.909530	174.440522	-0.770230	40.253511	-0.770230	40.253511	-10.686650	88.797526
3.500000	-11.585497	168.687580	-0.725175	34.954882	-0.725175	34.954882	-11.303154	84.897554
3.550000	-12.463066	162.433193	-0.677155	29.508424	-0.677155	29.508424	-12.090657	81.468071
3.600000	-13.613093	155.436702	-0.628884	23.895594	-0.628884	23.895594	-13.095002	78.837355
3.650000	-15.150506	147.230408	-0.583858	18.098871	-0.583858	18.098871	-14.375547	77.624507
3.700000	-17.274008	136.742101	-0.546436	12.103044	-0.546436	12.103044	-15.992453	79.064537
3.750000	-20.332869	120.908118	-0.521874	5.896855	-0.521874	5.896855	-17.917810	85.661860
3.800000	-24.484699	88.146550	-0.516603	-0.527354	-0.516603	-0.527354	-19.621127	101.540717
3.850000	-25.001217	24.897570	-0.537233	-7.162267	-0.537233	-7.162267	-19.608886	125.326612
3.900000	-20.149780	-15.086743	-0.591144	-13.995333	-0.591144	-13.995333	-17.486206	143.863612
3.950000	-16.111153	-33.815530	-0.685989	-21.001202	-0.685989	-21.001202	-14.811930	151.933861
4.000000	-13.137742	-46.226640	-0.827519	-28.137076	-0.827519	-28.137076	-12.413298	153.484121
4.050000	-10.851747	-56.214618	-1.021225	-35.352691	-1.021225	-35.352691	-10.399581	151.526685
4.100000	-9.035103	-65.036671	-1.270745	-42.586965	-1.270745	-42.586965	-8.727913	147.660961
4.150000	-7.562753	-73.172291	-1.576563	-49.773685	-1.576563	-49.773685	-7.340241	142.739143
4.200000	-6.356804	-80.809090	-1.937148	-56.846990	-1.937148	-56.846990	-6.187201	137.232579
4.250000	-5.362909	-88.030542	-2.347985	-63.749995	-2.347985	-63.749995	-5.228186	131.437808
4.300000	-4.541885	-94.865776	-2.803492	-70.433976	-2.803492	-70.433976	-4.431053	125.541326
4.350000	-3.862936	-101.328657	-3.296753	-76.863136	-3.296753	-76.863136	-3.768970	119.669152
4.400000	-3.301510	-107.426883	-3.820312	-83.012952	-3.820312	-83.012952	-3.219712	113.905297
4.450000	-2.836938	-113.171830	-4.366698	-88.872306	-4.366698	-88.872306	-2.764074	108.302964
4.500000	-2.451772	-118.580102	-4.929146	-94.441783	-4.929146	-94.441783	-2.385551	102.891820
4.550000	-2.131890	-123.669612	-5.501648	-99.727948	-5.501648	-99.727948	-2.070644	97.686784
4.600000	-1.866549	-128.453856	-6.078128	-104.736328	-6.078128	-104.736328	-1.809019	92.697210
4.650000	-1.644354	-132.967248	-6.655851	-109.493804	-6.655851	-109.493804	-1.589618	87.910932
4.700000	-1.458308	-137.226007	-7.230735	-114.012099	-7.230735	-114.012099	-1.405645	83.324541
4.750000	-1.302010	-141.251654	-7.800043	-118.308761	-7.800043	-118.308761	-1.250855	78.927972
4.800000	-1.170239	-145.064762	-8.361649	-122.401175	-8.361649	-122.401175	-1.120148	74.709809
4.850000	-1.058741	-148.684630	-8.913940	-126.306043	-8.913940	-126.306043	-1.009362	70.658166
4.900000	-0.964052	-152.129106	-9.455723	-130.039075	-9.455723	-130.039075	-0.915102	66.761261
4.950000	-0.883344	-155.414531	-9.986137	-133.614830	-9.986137	-133.614830	-0.834596	63.007761
5.000000	-0.814307	-158.555757	-10.504590	-137.046660	-10.504590	-137.046660	-0.765578	59.386992
5.050000	-0.755217	-161.563650	-11.009807	-140.344108	-11.009807	-140.344108	-0.706358	55.891491
5.100000	-0.704299	-164.453362	-11.502523	-143.521237	-11.502523	-143.521237	-0.655192	52.509296
5.150000	-0.660285	-167.235694	-11.982645	-146.587910	-11.982645	-146.587910	-0.610838	49.232107
5.200000	-0.622129	-169.920351	-12.450167	-149.553016	-12.450167	-149.553016	-0.572269	46.052368
5.250000	-0.588960	-172.516052	-12.905155	-152.424552	-12.905155	-152.424552	-0.538631	42.963212
5.300000	-0.560054	-175.030629	-13.347722	-155.209718	-13.347722	-155.209718	-0.509216	39.958410
5.350000	-0.534807	-177.471125	-13.778019	-157.914992	-13.778019	-157.914992	-0.483429	37.032311
5.400000	-0.512709	-179.843884	-14.196218	-160.546213	-14.196218	-160.546213	-0.460776	34.179790
5.450000	-0.493565	177.851003	-14.599527	-163.102326	-14.599527	-163.102326	-0.441068	31.402576
5.500000	-0.476542	175.597213	-14.993936	-165.600519	-14.993936	-165.600519	-0.423483	28.683948
5.550000	-0.461573	173.395562	-15.376869	-168.039030	-15.376869	-168.039030	-0.407961	26.026127
5.600000	-0.448399	171.241826	-15.748528	-170.421754	-15.748528	-170.421754	-0.394249	23.425611
5.650000	-0.436796	169.132168	-16.109115	-172.752230	-16.109115	-172.752230	-0.382130	20.879204
5.700000	-0.426576	167.063099	-16.458828	-175.033681	-16.458828	-175.033681	-0.371421	18.383976
5.750000	-0.417576	165.031433	-16.797856	-177.269052	-16.797856	-177.269052	-0.361964	15.937242
5.800000	-0.409654	163.034264	-17.126384	-179.461036	-17.126384	-179.461036	-0.353623	13.536534
5.850000	-0.402689	161.068927	-17.444587	178.387890	-17.444587	178.387890	-0.346281	11.179577
5.900000	-0.396578	159.132981	-17.752632	176.275449	-17.752632	176.275449	-0.339836	8.864268
5.950000	-0.391227	157.224181	-18.050678	174.199535	-18.050678	174.199535	-0.334202	6.588663
6.000000	-0.386558	155.340458	-18.338873	172.158195	-18.338873	172.158195	-0.329301	4.350957
6.050000	-0.382502	153.479905	-18.617358	170.149611	-18.617358	170.149611	-0.325069	2.149471
6.100000	-0.378998	151.640759	-18.886262	168.172088	-18.886262	168.172088	-0.321447	-0.017360
6.150000	-0.375992	149.821386	-19.145710	166.224034	-19.145710	166.224034	-0.318384	-2.151000
6.200000	-0.373439	148.020270	-19.395814	164.303948	-19.395814	164.303948	-0.315838	-4.252819
6.250000	-0.371296	146.236005	-19.636680	162.410412	-19.636680	162.410412	-0.313768	-6.324104
6.300000	-0.369543	144.467895	-19.867756	160.543115	-19.867756	160.543115	-0.312160	-8.364846
6.350000	-0.368130	142.713996	-20.089834	158.699623	-20.089834	158.699623	-0.310963	-10.377505
6.400000	-0.367029	140.973177	-20.302991	156.878710	-20.302991	156.878710	-0.310151	-12.363155
6.450000	-0.366214	139.244375	-20.507300	155.079196	-20.507300	155.079196	-0.309703	-14.322813
6.500000	-0.365663	137.526597	-20.702830	153.299937	-20.702830	153.299937	-0.309597	-16.257445
6.550000	-0.365357	135.818906	-20.889641	151.539827	-20.889641	151.539827	-0.309817	-18.167973
6.600000	-0.365277	134.120423	-21.067792	149.797785	-21.067792	149.797785	-0.310347	-20.055277
6.650000	-0.365407	132.430316	-21.237336	148.072759	-21.237336	148.072759	-0.311174	-21.920196
6.700000	-0.365733	130.747801	-21.398322	146.363719	-21.398322	146.363719	-0.312286	-23.763538
6.750000	-0.366241	129.072137	-21.550797	144.669654	-21.550797	144.669654	-0.313673	-25.586079
6.800000	-0.366919	127.402619	-21.694802	142.989574	-21.694802	142.989574	-0.315325	-27.388565
6.850000	-0.367758	125.738579	-21.830379	141.322505	-21.830379	141.322505	-0.317236	-29.171717
6.900000	-0.368748	124.079381	-21.957565	139.667490	-21.957565	139.667490	-0.319398	-30.936231
6.950000	-0.369879	122.424420	-22.076395	138.023588	-22.076395	138.023588	-0.321806	-32.682784
7.000000	-0.371144	120.773116	-22.186904	136.389876	-22.186904	136.389876	-0.324455	-34.412032
7.050000	-0.372537	119.124917	-22.289122	134.765445	-22.289122	134.765445	-0.327342	-36.124615
7.100000	-0.374051	117.479293	-22.383079	133.149402	-22.383079	133.149402	-0.330463	-37.821156
7.150000	-0.375681	115.835735	-22.468803	131.540874	-22.468803	131.540874	-0.333817	-39.502266
7.200000	-0.377423	114.193754	-22.546319	129.939003	-22.546319	129.939003	-0.337403	-41.168543
7.250000	-0.379272	112.552880	-22.615650	128.342946	-22.615650	128.342946	-0.341218	-42.820574
7.300000	-0.381226	110.912659	-22.676816	126.751880	-22.676816	126.751880	-0.345264	-44.458939
7.350000	-0.383282	109.272652	-22.729836	125.165000	-22.729836	125.165000	-0.349540	-46.084209
7.400000	-0.385438	107.632434	-22.774725	123.581514	-22.774725	123.581514	-0.354048	-47.696948
7.450000	-0.387694	105.991594	-22.811495	122.000649	-22.811495	122.000649	-0.358790	-49.297718
7.500000	-0.390047	104.349731	-22.840153	120.421648	-22.840153	120.421648	-0.363768	-50.887076
7.550000	-0.392504	102.706377	-22.860351	118.843780	-22.860351	118.843780	-0.368996	-52.465133
7.600000	-0.395060	101.061196	-22.872445	117.266237	-22.872445	117.266237	-0.374468	-54.032938
7.650000	-0.397717	99.413819	-22.876427	115.688302	-22.876427	115.688302	-0.380188	-55.591049
7.700000	-0.400477	97.763882	-22.872285	114.109269	-22.872285	114.109269	-0.386161	-57.140026
7.750000	-0.403343	96.111027	-22.860002	112.528439	-22.860002	112.528439	-0.392393	-58.680431
7.800000	-0.406319	94.454903	-22.839555	110.945122	-22.839555	110.945122	-0.398892	-60.212835
7.850000	-0.409408	92.795160	-22.810917	109.358631	-22.810917	109.358631	-0.405665	-61.737814
7.900000	-0.412615	91.131453	-22.774051	107.768280	-22.774051	107.768280	-0.412720	-63.255954
7.950000	-0.415946	89.463438	-22.728917	106.173384	-22.728917	106.173384	-0.420068	-64.767853
8.000000	-0.419408	87.790771	-22.675466	104.573257	-22.675466	104.573257	-0.427720	-66.274122
8.050000	-0.423007	86.113108	-22.613644	102.967205	-22.613644	102.967205	-0.435686	-67.775385
8.100000	-0.426752	84.430101	-22.543386	101.354527	-22.543386	101.354527	-0.443980	-69.272286
8.150000	-0.430652	82.741401	-22.464623	99.734512	-22.464623	99.734512	-0.452618	-70.765488
8.200000	-0.434716	81.046648	-22.377275	98.106435	-22.377275	98.106435	-0.461615	-72.255677
8.250000	-0.438956	79.345480	-22.281253	96.469553	-22.281253	96.469553	-0.470989	-73.743566
8.300000	-0.443383	77.637523	-22.176461	94.823103	-22.176461	94.823103	-0.480760	-75.229893
8.350000	-0.448025	75.921940	-22.062162	93.165625	-22.062162	93.165625	-0.490976	-76.715459
8.400000	-0.452840	74.200276	-21.940941	91.499217	-21.940941	91.499217	-0.501549	-78.200905
8.450000	-0.457961	72.468069	-21.807102	89.816926	-21.807102	89.816926	-0.512740	-79.687585
8.500000	-0.463302	70.728560	-21.665562	88.123386	-21.665562	88.123386	-0.524368	-81.176047
8.550000	-0.468871	68.981549	-21.516444	86.418188	-21.516444	86.418188	-0.536449	-82.666708
8.600000	-0.474776	67.223740	-21.355876	84.695956	-21.355876	84.695956	-0.549185	-84.161531
8.650000	-0.481031	65.455065	-21.184302	82.956243	-21.184302	82.956243	-0.562595	-85.661869
8.700000	-0.487586	63.677414	-21.004694	81.201932	-21.004694	81.201932	-0.576577	-87.167436
8.750000	-0.494454	61.890540	-20.817248	79.432529	-20.817248	79.432529	-0.591155	-88.678743
8.800000	-0.501895	60.087319	-20.613560	77.635984	-20.613560	77.635984	-0.606802	-90.201997
8.850000	-0.509738	58.273249	-20.401219	75.821187	-20.401219	75.821187	-0.623194	-91.734290
8.900000	-0.518004	56.447974	-20.180428	73.987461	-20.180428	73.987461	-0.640369	-93.276335
8.950000	-0.526855	54.607646	-19.947212	72.128131	-19.947212	72.128131	-0.658611	-94.832375
9.000000	-0.536428	52.749663	-19.699256	70.238484	-19.699256	70.238484	-0.678152	-96.406430
9.050000	-0.546596	50.877794	-19.442014	68.324848	-19.442014	68.324848	-0.698760	-97.995538
9.100000	-0.557393	48.991548	-19.175815	66.386311	-19.175815	66.386311	-0.720494	-99.600655
9.150000	-0.569306	47.080972	-18.890197	64.405373	-18.890197	64.405373	-0.744179	-101.234608
9.200000	-0.582156	45.151301	-18.592490	62.390962	-18.592490	62.390962	-0.769488	-102.892617
9.250000	-0.595944	43.203183	-18.284692	60.344131	-18.284692	60.344131	-0.796418	-104.574484
9.300000	-0.610949	41.231926	-17.963028	58.256525	-17.963028	58.256525	-0.825424	-106.287113
9.350000	-0.627756	39.228609	-17.619639	56.112134	-17.619639	56.112134	-0.857441	-108.044466
9.400000	-0.646040	37.200852	-17.264581	53.924249	-17.264581	53.924249	-0.891909	-109.837191
9.450000	-0.665860	35.148413	-16.899363	51.692354	-16.899363	51.692354	-0.928920	-111.666121
9.500000	-0.688346	33.055679	-16.510542	49.388193	-16.510542	49.388193	-0.970238	-113.556239
9.550000	-0.713506	30.925544	-16.103829	47.016476	-16.103829	47.016476	-1.015829	-115.505029
9.600000	-0.741835	28.753998	-15.678303	44.569374	-15.678303	44.569374	-1.066428	-117.520634
9.650000	-0.773946	26.536464	-15.232968	42.037723	-15.232968	42.037723	-1.122942	-119.612614
9.700000	-0.810604	24.267716	-14.766743	39.410733	-14.766743	39.410733	-1.186506	-121.792267
9.750000	-0.852771	21.941801	-14.278468	36.675623	-14.278468	36.675623	-1.258553	-124.073057
9.800000	-0.901660	19.551961	-13.766911	33.817162	-13.766911	33.817162	-1.340914	-126.471150
9.850000	-0.958333	17.094616	-13.233819	30.825264	-13.233819	30.825264	-1.435245	-128.998119
9.900000	-1.025822	14.552148	-12.670921	27.659659	-12.670921	27.659659	-1.546221	-131.695627
9.950000	-1.106171	11.920067	-12.080705	24.302994	-12.080705	24.302994	-1.677246	-134.584148
10.000000	-1.202719	9.188480	-11.461990	20.722497	-11.461990	20.722497	-1.834010	-137.700570
