! freq	dB(S11)	phase(S11)	dB(S12)	phase(S12)	
!     	dB(S21)	phase(S21)	dB(S22)	phase(S22)	
!S-par simulation data
#  GHz  S  DB  R 50
0.000000	-82.531942	0.000000	-0.000649	0.000000	-0.000649	0.000000	-82.531942	0.000000
0.050000	-26.661108	-96.171547	-0.020623	-6.338689	-0.020623	-6.338689	-26.664013	-96.838582
0.100000	-20.757299	-102.236133	-0.056316	-12.582074	-0.056316	-12.582074	-20.761195	-103.618339
0.150000	-17.384235	-108.162518	-0.107854	-18.748880	-0.107854	-18.748880	-17.389086	-110.184475
0.200000	-15.056454	-113.956153	-0.173176	-24.840006	-0.173176	-24.840006	-15.061380	-116.668005
0.250000	-13.317338	-119.643750	-0.250044	-30.842960	-0.250044	-30.842960	-13.323137	-123.041006
0.300000	-11.961587	-125.226232	-0.335696	-36.747787	-0.335696	-36.747787	-11.968023	-129.297932
0.350000	-10.879503	-130.698777	-0.427165	-42.547222	-0.427165	-42.547222	-10.886231	-135.437432
0.400000	-10.001613	-136.062852	-0.521340	-48.241658	-0.521340	-48.241658	-10.008443	-141.462959
0.450000	-9.285560	-141.318931	-0.615292	-53.830748	-0.615292	-53.830748	-9.292419	-147.374942
0.500000	-8.700300	-146.473272	-0.706238	-59.319811	-0.706238	-59.319811	-8.707165	-153.178848
0.550000	-8.226376	-151.531327	-0.791361	-64.713391	-0.791361	-64.713391	-8.233221	-158.878623
0.600000	-7.843518	-156.508718	-0.868828	-70.026226	-0.868828	-70.026226	-7.850301	-164.488930
0.650000	-7.541900	-161.415204	-0.936516	-75.267274	-0.936516	-75.267274	-7.548558	-170.017707
0.700000	-7.312772	-166.264485	-0.992804	-80.449433	-0.992804	-80.449433	-7.319220	-175.476785
0.750000	-7.149842	-171.071427	-1.036403	-85.586736	-1.036403	-85.586736	-7.155984	179.121193
0.800000	-7.048862	-175.851821	-1.066361	-90.694065	-1.066361	-90.694065	-7.054587	173.763126
0.850000	-7.007375	179.377800	-1.082055	-95.786906	-1.082055	-95.786906	-7.012560	168.435796
0.900000	-7.025197	174.600036	-1.083046	-100.881325	-1.083046	-100.881325	-7.029699	163.126257
0.950000	-7.102968	169.796854	-1.069443	-105.993770	-1.069443	-105.993770	-7.106616	157.821778
1.000000	-7.242846	164.950211	-1.041747	-111.140312	-1.041747	-111.140312	-7.245428	152.510959
1.050000	-7.449233	160.041618	-1.000714	-116.336815	-1.000714	-116.336815	-7.450473	147.184215
1.100000	-7.728676	155.052193	-0.947466	-121.598663	-0.947466	-121.598663	-7.728199	141.834523
1.150000	-8.090328	149.962573	-0.883505	-126.940444	-0.883505	-126.940444	-8.087610	136.458683
1.200000	-8.544368	144.756678	-0.810930	-132.372564	-0.810930	-132.372564	-8.538667	131.059614
1.250000	-9.112365	139.405288	-0.731530	-137.912746	-0.731530	-137.912746	-9.102527	125.647190
1.300000	-9.815314	133.887845	-0.648264	-143.567714	-0.648264	-143.567714	-9.799552	120.247200
1.350000	-10.685557	128.175028	-0.564158	-149.343820	-0.564158	-149.343820	-10.660937	114.907334
1.400000	-11.770295	122.225294	-0.482516	-155.243969	-0.482516	-155.243969	-11.731665	109.715043
1.450000	-13.142033	115.969823	-0.406820	-161.266790	-0.406820	-161.266790	-13.079526	104.834275
1.500000	-14.921347	109.272587	-0.340599	-167.406080	-0.340599	-167.406080	-14.813640	100.595099
1.550000	-17.333658	101.806660	-0.287253	-173.650492	-0.287253	-173.650492	-17.125609	97.754208
1.600000	-20.886398	92.490949	-0.250049	-179.984285	-0.250049	-179.984285	-20.384887	98.557918
1.650000	-27.130396	75.402892	-0.231239	173.615376	-0.231239	173.615376	-25.202261	111.830203
1.700000	-34.774050	-23.867484	-0.232655	167.173096	-0.232655	167.173096	-28.348048	164.864660
1.750000	-24.601180	-80.740253	-0.255049	160.716555	-0.255049	160.716555	-23.334227	-156.952380
1.800000	-19.443104	-93.730042	-0.298490	154.274278	-0.298490	154.274278	-19.008319	-149.970127
1.850000	-16.263842	-102.360015	-0.361464	147.873252	-0.361464	147.873252	-16.048392	-150.842277
1.900000	-14.018772	-109.649747	-0.442416	141.540475	-0.442416	141.540475	-13.889281	-154.364234
1.950000	-12.321401	-116.344175	-0.537832	135.293755	-0.537832	135.293755	-12.234382	-158.943878
2.000000	-10.989514	-122.672928	-0.644426	129.147967	-0.644426	129.147967	-10.926320	-164.029479
2.050000	-9.925852	-128.728103	-0.758725	123.118240	-0.758725	123.118240	-9.877010	-169.364255
2.100000	-9.066157	-134.569559	-0.876482	117.208407	-0.876482	117.208407	-9.026408	-174.798471
2.150000	-8.364662	-140.239047	-0.993840	111.412839	-0.993840	111.412839	-8.330826	179.745560
2.200000	-7.796250	-145.755270	-1.106882	105.731497	-1.106882	105.731497	-7.766118	174.310575
2.250000	-7.338971	-151.144351	-1.212035	100.153531	-1.212035	100.153531	-7.310938	168.920636
2.300000	-6.975719	-156.432876	-1.306367	94.663468	-1.306367	94.663468	-6.948526	163.585406
2.350000	-6.696791	-161.644039	-1.386851	89.246529	-1.386851	89.246529	-6.669311	158.308587
2.400000	-6.496214	-166.804175	-1.450559	83.884381	-1.450559	83.884381	-6.467328	153.088951
2.450000	-6.366477	-171.944503	-1.496121	78.553198	-1.496121	78.553198	-6.335047	147.918397
2.500000	-6.305588	-177.095904	-1.521933	73.229865	-1.521933	73.229865	-6.270312	142.789696
2.550000	-6.317308	177.703922	-1.525840	67.887264	-1.525840	67.887264	-6.276518	137.696727
2.600000	-6.403409	172.414446	-1.507673	62.496092	-1.507673	62.496092	-6.354998	132.632297
2.650000	-6.571050	166.988640	-1.467255	57.024778	-1.467255	57.024778	-6.512156	127.594639
2.700000	-6.831753	161.370910	-1.405077	51.439105	-1.405077	51.439105	-6.758312	122.590119
2.750000	-7.202892	155.493395	-1.322460	45.702227	-1.322460	45.702227	-7.108872	117.639840
2.800000	-7.710144	149.269568	-1.221772	39.774918	-1.221772	39.774918	-7.586130	112.791409
2.850000	-8.391628	142.582165	-1.106698	33.616274	-1.106698	33.616274	-8.222048	108.140970
2.900000	-9.305292	135.257928	-0.982561	27.185119	-0.982561	27.185119	-9.062494	103.876886
2.950000	-10.544719	126.997305	-0.856704	20.439985	-0.856704	20.439985	-10.174540	100.383952
3.000000	-12.265229	117.215551	-0.738884	13.349016	-0.738884	13.349016	-11.648675	98.461835
3.050000	-14.751099	104.463799	-0.641095	5.893162	-0.641095	5.893162	-13.583979	99.882035
3.100000	-18.533127	83.805704	-0.577483	-1.928997	-0.577483	-1.928997	-15.914373	108.677586
3.150000	-23.164313	34.401076	-0.563424	-10.090558	-0.563424	-10.090558	-17.544557	130.466008
3.200000	-20.226318	-33.838639	-0.614206	-18.532211	-0.614206	-18.532211	-16.326185	156.375066
3.250000	-15.148673	-63.587327	-0.741826	-27.158021	-0.741826	-27.158021	-13.460336	169.516907
3.300000	-11.630951	-79.836813	-0.954756	-35.847627	-0.954756	-35.847627	-10.780079	172.259732
3.350000	-9.133972	-92.000295	-1.255036	-44.463837	-1.255036	-44.463837	-8.637463	170.013104
3.400000	-7.285086	-102.325141	-1.637896	-52.873659	-1.637896	-52.873659	-6.965951	165.471028
3.450000	-5.878903	-111.531149	-2.091800	-60.972061	-2.091800	-60.972061	-5.658337	159.903293
3.500000	-4.794153	-119.887838	-2.603119	-68.680792	-2.603119	-68.680792	-4.633081	153.914636
3.550000	-3.949721	-127.524561	-3.156850	-75.955141	-3.156850	-75.955141	-3.827092	147.836952
3.600000	-3.287738	-134.522851	-3.738441	-82.780333	-3.738441	-82.780333	-3.191457	141.853656
3.650000	-2.765270	-140.949415	-4.335061	-89.165398	-4.335061	-89.165398	-2.687994	136.060933
3.700000	-2.350528	-146.861931	-4.935788	-95.131948	-4.935788	-95.131948	-2.287543	130.504668
3.750000	-2.020395	-152.307347	-5.530873	-100.703907	-5.530873	-100.703907	-1.968488	125.204627
3.800000	-1.753982	-157.354411	-6.115427	-105.930768	-6.115427	-105.930768	-1.710941	120.148049
3.850000	-1.536899	-162.055836	-6.685981	-110.853122	-6.685981	-110.853122	-1.501104	115.317444
3.900000	-1.359129	-166.450506	-7.238997	-115.501764	-7.238997	-115.501764	-1.329334	110.697352
3.950000	-1.214446	-170.556650	-7.767939	-119.890138	-7.767939	-119.890138	-1.189620	106.283257
4.000000	-1.093992	-174.432122	-8.276162	-124.068614	-8.276162	-124.068614	-1.073372	102.038873
4.050000	-0.993215	-178.104127	-8.762720	-128.060712	-8.762720	-128.060712	-0.976181	97.947498
4.100000	-0.910790	178.432594	-9.218446	-131.860265	-9.218446	-131.860265	-0.896763	94.016557
4.150000	-0.839273	175.100457	-9.658840	-135.538102	-9.658840	-135.538102	-0.827899	90.188239
4.200000	-0.778571	171.906928	-10.076889	-139.086733	-10.076889	-139.086733	-0.769508	86.469707
4.250000	-0.726871	168.835950	-10.472652	-142.520497	-10.472652	-142.520497	-0.719834	82.849689
4.300000	-0.683473	165.885488	-10.841591	-145.840563	-10.841591	-145.840563	-0.678210	79.328162
4.350000	-0.646418	163.031990	-11.187548	-149.068492	-11.187548	-149.068492	-0.642744	75.887275
4.400000	-0.614464	160.259527	-11.512826	-152.218908	-11.512826	-152.218908	-0.612239	72.514834
4.450000	-0.586900	157.559059	-11.817641	-155.299996	-11.817641	-155.299996	-0.586015	69.204141
4.500000	-0.563133	154.922464	-12.102233	-158.319131	-12.102233	-158.319131	-0.563505	65.949133
4.550000	-0.542668	152.342424	-12.366856	-161.282974	-12.366856	-161.282974	-0.544238	62.744312
4.600000	-0.525089	149.812328	-12.611772	-164.197563	-12.611772	-164.197563	-0.527819	59.584674
4.650000	-0.510192	147.328625	-12.835651	-167.065928	-12.835651	-167.065928	-0.514065	56.467977
4.700000	-0.497738	144.886426	-13.037778	-169.892405	-13.037778	-169.892405	-0.502758	53.390818
4.750000	-0.487214	142.475818	-13.221396	-172.686574	-13.221396	-172.686574	-0.493402	50.344685
4.800000	-0.478438	140.092483	-13.386637	-175.452485	-13.386637	-175.452485	-0.485830	47.326160
4.850000	-0.471258	137.732401	-13.533625	-178.193949	-13.533625	-178.193949	-0.479905	44.332017
4.900000	-0.465546	135.391814	-13.662479	179.085435	-13.662479	179.085435	-0.475512	41.359188
4.950000	-0.461198	133.067187	-13.773305	176.382244	-13.773305	176.382244	-0.472559	38.404743
5.000000	-0.458126	130.755181	-13.866199	173.693200	-13.866199	173.693200	-0.470974	35.465854
5.050000	-0.456406	128.453201	-13.938941	171.015898	-13.938941	171.015898	-0.470863	32.540843
5.100000	-0.455859	126.156817	-13.993538	168.345677	-13.993538	168.345677	-0.472052	29.625280
5.150000	-0.456452	123.862921	-14.030001	165.679293	-14.030001	165.679293	-0.474525	26.716275
5.200000	-0.458168	121.568489	-14.048311	163.013521	-14.048311	163.013521	-0.478282	23.810921
5.250000	-0.461005	119.270554	-14.048415	160.345125	-14.048415	160.345125	-0.483339	20.906262
5.300000	-0.464975	116.966181	-14.030231	157.670829	-14.030231	157.670829	-0.489730	17.999258
5.350000	-0.470106	114.652438	-13.993643	154.987278	-13.993643	154.987278	-0.497505	15.086755
5.400000	-0.476443	112.326370	-13.938505	152.291014	-13.938505	152.291014	-0.506734	12.165446
5.450000	-0.483971	109.986034	-13.865777	149.579590	-13.865777	149.579590	-0.517411	9.232753
5.500000	-0.492855	107.627380	-13.773911	146.848220	-13.773911	146.848220	-0.529752	6.284230
5.550000	-0.503242	105.246449	-13.662101	144.092017	-13.662101	144.092017	-0.543947	3.315090
5.600000	-0.515280	102.839428	-13.529864	141.306103	-13.529864	141.306103	-0.560191	0.320392
5.650000	-0.529037	100.404274	-13.378144	138.487529	-13.378144	138.487529	-0.578573	-2.703217
5.700000	-0.544696	97.937432	-13.206627	135.631521	-13.206627	135.631521	-0.599329	-5.760754
5.750000	-0.562482	95.435116	-13.014971	132.732892	-13.014971	132.732892	-0.622738	-8.857748
5.800000	-0.582663	92.893264	-12.802811	129.785971	-12.802811	129.785971	-0.649136	-12.000329
5.850000	-0.605563	90.307491	-12.569756	126.784520	-12.569756	126.784520	-0.678924	-15.195326
5.900000	-0.631937	87.667419	-12.312279	123.714429	-12.312279	123.714429	-0.713030	-18.457563
5.950000	-0.662043	84.971696	-12.032360	120.572703	-12.032360	120.572703	-0.751766	-21.791249
6.000000	-0.696450	82.215087	-11.729873	117.351247	-11.729873	117.351247	-0.795823	-25.205747
6.050000	-0.735896	79.391159	-11.404338	114.040098	-11.404338	114.040098	-0.846099	-28.712571
6.100000	-0.781289	76.492817	-11.055288	110.628000	-11.055288	110.628000	-0.903692	-32.324893
6.150000	-0.833751	73.512219	-10.682277	107.102188	-10.682277	107.102188	-0.969955	-36.057848
6.200000	-0.895032	70.436991	-10.283282	103.442761	-10.283282	103.442761	-1.047000	-39.934776
6.250000	-0.967564	67.251831	-9.855763	99.624250	-9.855763	99.624250	-1.137753	-43.986017
6.300000	-1.052999	63.953465	-9.402929	95.637387	-9.402929	95.637387	-1.244201	-48.224883
6.350000	-1.154265	60.530460	-8.924845	91.459607	-8.924845	91.459607	-1.369886	-52.680115
6.400000	-1.275097	56.970840	-8.421898	87.065106	-8.421898	87.065106	-1.519334	-57.385401
6.450000	-1.420274	53.262598	-7.894931	82.424499	-7.894931	82.424499	-1.698377	-62.380323
6.500000	-1.595701	49.395912	-7.345838	77.506890	-7.345838	77.506890	-1.914291	-67.708609
6.550000	-1.812699	45.347349	-6.772117	72.245511	-6.772117	72.245511	-2.180993	-73.462482
6.600000	-2.080443	41.125356	-6.181203	66.615409	-6.181203	66.615409	-2.510255	-79.689818
6.650000	-2.412135	36.742677	-5.579420	60.578063	-5.579420	60.578063	-2.919349	-86.464059
6.700000	-2.827415	32.228003	-4.973316	54.077530	-4.973316	54.077530	-3.434649	-93.900097
6.750000	-3.350054	27.654389	-4.373639	47.069789	-4.373639	47.069789	-4.090261	-102.129793
6.800000	-4.005068	23.157812	-3.794950	39.543569	-3.794950	39.543569	-4.926929	-111.287143
6.850000	-4.824493	18.973322	-3.253060	31.488710	-3.253060	31.488710	-6.004470	-121.604637
6.900000	-5.841071	15.520188	-2.766795	22.920613	-2.766795	22.920613	-7.405717	-133.491703
6.950000	-7.068146	13.458375	-2.354672	13.917218	-2.354672	13.917218	-9.231785	-147.670260
7.000000	-8.471465	13.774513	-2.032004	4.592761	-2.032004	4.592761	-11.594899	-165.770680
7.050000	-9.885411	17.747218	-1.809911	-4.902985	-1.809911	-4.902985	-14.429311	168.104947
7.100000	-10.976562	25.717878	-1.684969	-14.404361	-1.684969	-14.404361	-16.739914	128.822533
7.150000	-11.292754	36.048778	-1.654276	-23.754051	-1.654276	-23.754051	-16.162758	84.165678
7.200000	-10.803161	44.867324	-1.702137	-32.825365	-1.702137	-32.825365	-13.823369	52.761465
7.250000	-9.898544	50.050738	-1.809673	-41.540743	-1.809673	-41.540743	-11.658641	32.306326
7.300000	-8.935276	51.921042	-1.957462	-49.872851	-1.957462	-49.872851	-10.002649	17.312926
7.350000	-8.074728	51.446593	-2.128936	-57.817037	-2.128936	-57.817037	-8.776242	5.259516
7.400000	-7.364917	49.490923	-2.309259	-65.393342	-2.309259	-65.393342	-7.877859	-5.040636
7.450000	-6.798615	46.690525	-2.486782	-72.660490	-2.486782	-72.660490	-7.219520	-14.267389
7.500000	-6.357763	43.388253	-2.653315	-79.668763	-2.653315	-79.668763	-6.746346	-22.766224
7.550000	-6.027904	39.788058	-2.801731	-86.462167	-2.801731	-86.462167	-6.427378	-30.751816
7.600000	-5.785990	36.043822	-2.929616	-93.109161	-2.929616	-93.109161	-6.228173	-38.434611
7.650000	-5.622107	32.236845	-3.033721	-99.655928	-3.033721	-99.655928	-6.137537	-45.946288
7.700000	-5.523152	28.431452	-3.114097	-106.156277	-3.114097	-106.156277	-6.142167	-53.422578
7.750000	-5.481383	24.675805	-3.170901	-112.656706	-3.170901	-112.656706	-6.238448	-60.986251
7.800000	-5.489852	21.015334	-3.205564	-119.203294	-3.205564	-119.203294	-6.426260	-68.770824
7.850000	-5.541077	17.490833	-3.221072	-125.835799	-3.221072	-125.835799	-6.706442	-76.910891
7.900000	-5.629840	14.158299	-3.220289	-132.598729	-3.220289	-132.598729	-7.088446	-85.601247
7.950000	-5.746322	11.057954	-3.208525	-139.519464	-3.208525	-139.519464	-7.574860	-95.021567
8.000000	-5.880981	8.259908	-3.191009	-146.639772	-3.191009	-146.639772	-8.176582	-105.513971
8.050000	-6.018461	5.794588	-3.174819	-153.973115	-3.174819	-153.973115	-8.887739	-117.402614
8.100000	-6.139520	3.700040	-3.167922	-161.543004	-3.167922	-161.543004	-9.687105	-131.250187
8.150000	-6.221124	1.952514	-3.178977	-169.348931	-3.178977	-169.348931	-10.502294	-147.618269
8.200000	-6.238548	0.475463	-3.217389	-177.383171	-3.217389	-177.383171	-11.177616	-166.966041
8.250000	-6.171561	-0.885244	-3.292331	174.380752	-3.292331	174.380752	-11.475034	171.045785
8.300000	-6.010527	-2.340778	-3.412130	165.985478	-3.412130	165.985478	-11.202016	148.076668
8.350000	-5.760706	-4.116381	-3.583383	157.488793	-3.583383	157.488793	-10.394072	126.410430
8.400000	-5.441378	-6.396510	-3.810191	148.959631	-3.810191	148.959631	-9.282318	107.437738
8.450000	-5.080112	-9.286112	-4.093672	140.472024	-4.093672	140.472024	-8.098795	91.298398
8.500000	-4.705359	-12.805946	-4.432040	132.098878	-4.432040	132.098878	-6.981017	77.547222
8.550000	-4.341097	-16.905245	-4.820525	123.904467	-4.820525	123.904467	-5.987078	65.659832
8.600000	-4.003825	-21.494015	-5.252358	115.938966	-5.252358	115.938966	-5.130222	55.220400
8.650000	-3.703062	-26.474995	-5.719806	108.240186	-5.719806	108.240186	-4.404194	45.943443
8.700000	-3.441540	-31.746714	-6.214887	100.821159	-6.214887	100.821159	-3.792903	37.596630
8.750000	-3.219441	-37.234779	-6.730095	93.694301	-6.730095	93.694301	-3.281296	30.045074
8.800000	-3.035014	-42.877351	-7.257667	86.865731	-7.257667	86.865731	-2.855461	23.189188
8.850000	-2.882540	-48.617769	-7.792922	80.308710	-7.792922	80.308710	-2.498204	16.899575
8.900000	-2.759092	-54.424198	-8.329633	74.021952	-8.329633	74.021952	-2.200057	11.128517
8.950000	-2.659895	-60.268057	-8.864080	67.983961	-8.864080	67.983961	-1.950123	5.803521
9.000000	-2.581229	-66.130235	-9.392432	62.180059	-9.392432	62.180059	-1.740566	0.877004
9.050000	-2.518319	-71.996363	-9.915225	56.576343	-9.915225	56.576343	-1.562425	-3.722628
9.100000	-2.468364	-77.857239	-10.430835	51.157347	-10.430835	51.157347	-1.410615	-8.030493
9.150000	-2.430174	-83.702817	-10.932080	45.932601	-10.932080	45.932601	-1.283543	-12.041497
9.200000	-2.400070	-89.528216	-11.422917	40.865121	-11.422917	40.865121	-1.174872	-15.819343
9.250000	-2.376058	-95.329073	-11.903691	35.938746	-11.903691	35.938746	-1.081383	-19.393296
9.300000	-2.356809	-101.099462	-12.372112	31.148871	-12.372112	31.148871	-1.001341	-22.774984
9.350000	-2.341084	-106.832190	-12.825218	26.493334	-12.825218	26.493334	-0.933372	-25.972545
9.400000	-2.327331	-112.527422	-13.267398	21.947426	-13.267398	21.947426	-0.874505	-29.023901
9.450000	-2.314693	-118.181622	-13.698499	17.503660	-13.698499	17.503660	-0.823492	-31.942381
9.500000	-2.302426	-123.785227	-14.114449	13.166746	-14.114449	13.166746	-0.780007	-34.725758
9.550000	-2.289831	-129.337796	-14.517748	8.922379	-14.517748	8.922379	-0.742541	-37.395541
9.600000	-2.276453	-134.838540	-14.909963	4.760513	-14.909963	4.760513	-0.710052	-39.966895
9.650000	-2.261903	-140.283050	-15.290361	0.678304	-15.290361	0.678304	-0.682026	-42.445862
9.700000	-2.245685	-145.660756	-15.655554	-3.319835	-15.655554	-3.319835	-0.658342	-44.830390
9.750000	-2.227815	-150.977803	-16.009775	-7.249418	-16.009775	-7.249418	-0.637943	-47.140374
9.800000	-2.208171	-156.232045	-16.352989	-11.113869	-16.352989	-11.113869	-0.620461	-49.381558
9.850000	-2.186480	-161.414796	-16.682774	-14.910285	-16.682774	-14.910285	-0.605815	-51.553144
9.900000	-2.162757	-166.525855	-16.999836	-18.643698	-16.999836	-18.643698	-0.593612	-53.662396
9.950000	-2.137160	-171.569030	-17.305959	-22.321410	-17.305959	-22.321410	-0.583431	-55.718283
10.000000	-2.109723	-176.543403	-17.601094	-25.945814	-17.601094	-25.945814	-0.575071	-57.724613
