! freq	dB(S11)	phase(S11)	dB(S12)	phase(S12)	
!     	dB(S21)	phase(S21)	dB(S22)	phase(S22)	
!S-par simulation data
#  GHz  S  DB  R 50
0.000000	-92.181932	0.000000	-0.000214	0.000000	-0.000214	0.000000	-92.181932	0.000000
0.050000	-44.259376	-91.075449	-0.001430	-1.455003	-0.001430	-1.455003	-44.272748	-91.563212
0.100000	-38.249665	-92.496077	-0.004475	-2.903969	-0.004475	-2.903969	-38.258649	-93.470566
0.150000	-34.744058	-93.833286	-0.008269	-4.345941	-0.008269	-4.345941	-34.747253	-95.292916
0.200000	-32.264729	-95.141371	-0.012150	-5.783171	-0.012150	-5.783171	-32.262152	-97.086187
0.250000	-30.348226	-96.428288	-0.015914	-7.217729	-0.015914	-7.217729	-30.340733	-98.859837
0.300000	-28.787630	-97.696637	-0.019589	-8.650938	-0.019589	-8.650938	-28.776598	-100.617121
0.350000	-27.472188	-98.949167	-0.023267	-10.083426	-0.023267	-10.083426	-27.459104	-102.360534
0.400000	-26.336158	-100.187957	-0.027035	-11.515381	-0.027035	-11.515381	-26.322377	-104.091684
0.450000	-25.337458	-101.414708	-0.030968	-12.946795	-0.030968	-12.946795	-25.324147	-105.811866
0.500000	-24.446945	-102.631969	-0.035105	-14.377634	-0.035105	-14.377634	-24.434942	-107.523369
0.550000	-23.644159	-103.841271	-0.039473	-15.807809	-0.039473	-15.807809	-23.634050	-109.227781
0.600000	-22.914275	-105.043541	-0.044105	-17.237189	-0.044105	-17.237189	-22.906456	-110.926357
0.650000	-22.245692	-106.239970	-0.049001	-18.665703	-0.049001	-18.665703	-22.240348	-112.620670
0.700000	-21.629514	-107.431271	-0.054161	-20.093276	-0.054161	-20.093276	-21.626689	-114.311895
0.750000	-21.058892	-108.617762	-0.059593	-21.519794	-0.059593	-21.519794	-21.058534	-116.000950
0.800000	-20.528168	-109.799779	-0.065292	-22.945186	-0.065292	-22.945186	-20.530146	-117.688707
0.850000	-20.032670	-110.977573	-0.071249	-24.369399	-0.071249	-24.369399	-20.036797	-119.375895
0.900000	-19.568564	-112.151260	-0.077454	-25.792379	-0.077454	-25.792379	-19.574618	-121.063102
0.950000	-19.132665	-113.320863	-0.083899	-27.214070	-0.083899	-27.214070	-19.140404	-122.750823
1.000000	-18.722261	-114.486375	-0.090573	-28.634430	-0.090573	-28.634430	-18.731429	-124.439484
1.050000	-18.335032	-115.647750	-0.097465	-30.053421	-0.097465	-30.053421	-18.345364	-126.129457
1.100000	-17.968978	-116.804915	-0.104562	-31.471014	-0.104562	-31.471014	-17.980207	-127.821068
1.150000	-17.622310	-117.957827	-0.111849	-32.887200	-0.111849	-32.887200	-17.634169	-129.514589
1.200000	-17.293641	-119.106257	-0.119319	-34.301924	-0.119319	-34.301924	-17.305855	-131.210355
1.250000	-16.981555	-120.250156	-0.126954	-35.715196	-0.126954	-35.715196	-16.993846	-132.908595
1.300000	-16.684922	-121.389343	-0.134743	-37.126997	-0.134743	-37.126997	-16.697000	-134.609596
1.350000	-16.402638	-122.523732	-0.142670	-38.537342	-0.142670	-38.537342	-16.414196	-136.313578
1.400000	-16.133764	-123.653182	-0.150722	-39.946238	-0.150722	-39.946238	-16.144464	-138.020783
1.450000	-15.877457	-124.777552	-0.158885	-41.353697	-0.158885	-41.353697	-15.886910	-139.731423
1.500000	-15.632954	-125.896695	-0.167145	-42.759736	-0.167145	-42.759736	-15.640691	-141.445648
1.550000	-15.399570	-127.010463	-0.175489	-44.164377	-0.175489	-44.164377	-15.404994	-143.163433
1.600000	-15.176715	-128.118662	-0.183904	-45.567635	-0.183904	-45.567635	-15.179028	-144.884363
1.650000	-14.963796	-129.221170	-0.192376	-46.969551	-0.192376	-46.969551	-14.961927	-146.606983
1.700000	-14.760361	-130.317738	-0.200894	-48.370140	-0.200894	-48.370140	-14.752912	-148.327532
1.750000	-14.565745	-131.408474	-0.209443	-49.769498	-0.209443	-49.769498	-14.551402	-150.038879
1.800000	-14.379616	-132.493084	-0.218013	-51.167638	-0.218013	-51.167638	-14.358219	-151.730489
1.850000	-14.201569	-133.571416	-0.226591	-52.564608	-0.226591	-52.564608	-14.176245	-153.399942
1.900000	-14.031265	-134.643266	-0.235167	-53.960452	-0.235167	-53.960452	-14.008165	-155.071284
1.950000	-13.868356	-135.708477	-0.243728	-55.355226	-0.243728	-55.355226	-13.851523	-156.775852
2.000000	-13.712541	-136.766855	-0.252264	-56.748987	-0.252264	-56.748987	-13.701780	-158.515672
2.050000	-13.563431	-137.818394	-0.260766	-58.141817	-0.260766	-58.141817	-13.556837	-160.276334
2.100000	-13.420779	-138.862883	-0.269224	-59.533775	-0.269224	-59.533775	-13.416536	-162.048020
2.150000	-13.284325	-139.900168	-0.277629	-60.924929	-0.277629	-60.924929	-13.281132	-163.826199
2.200000	-13.153823	-140.930090	-0.285972	-62.315347	-0.285972	-62.315347	-13.150818	-165.609439
2.250000	-13.029042	-141.952491	-0.294245	-63.705104	-0.294245	-63.705104	-13.025661	-167.397599
2.300000	-12.909766	-142.967211	-0.302440	-65.094275	-0.302440	-65.094275	-12.905631	-169.191008
2.350000	-12.795791	-143.974086	-0.310550	-66.482936	-0.310550	-66.482936	-12.790641	-170.990141
2.400000	-12.686923	-144.972951	-0.318569	-67.871167	-0.318569	-67.871167	-12.680573	-172.795498
2.450000	-12.582980	-145.963639	-0.326491	-69.259048	-0.326491	-69.259048	-12.575294	-174.607567
2.500000	-12.483787	-146.945979	-0.334310	-70.646661	-0.334310	-70.646661	-12.474660	-176.426817
2.550000	-12.389254	-147.919607	-0.342018	-72.034088	-0.342018	-72.034088	-12.378602	-178.253873
2.600000	-12.299147	-148.884527	-0.349614	-73.421420	-0.349614	-73.421420	-12.286901	179.910989
2.650000	-12.213314	-149.840560	-0.357093	-74.808743	-0.357093	-74.808743	-12.199418	178.067346
2.700000	-12.131612	-150.787520	-0.364452	-76.196143	-0.364452	-76.196143	-12.116013	176.214784
2.750000	-12.053901	-151.725219	-0.371689	-77.583709	-0.371689	-77.583709	-12.036553	174.352894
2.800000	-11.980049	-152.653464	-0.378800	-78.971528	-0.378800	-78.971528	-11.960906	172.481266
2.850000	-11.909927	-153.572059	-0.385785	-80.359689	-0.385785	-80.359689	-11.888944	170.599495
2.900000	-11.843409	-154.480804	-0.392642	-81.748283	-0.392642	-81.748283	-11.820543	168.707173
2.950000	-11.780376	-155.379493	-0.399369	-83.137398	-0.399369	-83.137398	-11.755581	166.803892
3.000000	-11.720709	-156.267918	-0.405968	-84.527123	-0.405968	-84.527123	-11.693936	164.889244
3.050000	-11.664294	-157.145866	-0.412439	-85.917550	-0.412439	-85.917550	-11.635493	162.962817
3.100000	-11.611018	-158.013118	-0.418781	-87.308767	-0.418781	-87.308767	-11.580135	161.024201
3.150000	-11.560799	-158.869334	-0.424996	-88.700874	-0.424996	-88.700874	-11.527775	159.072841
3.200000	-11.513525	-159.714281	-0.431085	-90.093964	-0.431085	-90.093964	-11.478297	157.108310
3.250000	-11.469060	-160.547850	-0.437052	-91.488115	-0.437052	-91.488115	-11.431559	155.130333
3.300000	-11.427295	-161.369810	-0.442901	-92.883415	-0.442901	-92.883415	-11.387450	153.138498
3.350000	-11.388126	-162.179929	-0.448634	-94.279952	-0.448634	-94.279952	-11.345857	151.132396
3.400000	-11.351445	-162.977973	-0.454257	-95.677811	-0.454257	-95.677811	-11.306668	149.111621
3.450000	-11.317146	-163.763707	-0.459772	-97.077079	-0.459772	-97.077079	-11.269769	147.075771
3.500000	-11.285122	-164.536895	-0.465187	-98.477839	-0.465187	-98.477839	-11.235048	145.024451
3.550000	-11.255266	-165.297303	-0.470505	-99.880175	-0.470505	-99.880175	-11.202390	142.957272
3.600000	-11.227469	-166.044700	-0.475734	-101.284168	-0.475734	-101.284168	-11.171679	140.873855
3.650000	-11.201621	-166.778857	-0.480879	-102.689899	-0.480879	-102.689899	-11.142797	138.773831
3.700000	-11.177611	-167.499550	-0.485948	-104.097446	-0.485948	-104.097446	-11.115627	136.656845
3.750000	-11.155325	-168.206562	-0.490949	-105.506888	-0.490949	-105.506888	-11.090046	134.522557
3.800000	-11.134679	-168.899376	-0.495887	-106.918342	-0.495887	-106.918342	-11.065961	132.370253
3.850000	-11.115519	-169.578091	-0.500775	-108.331842	-0.500775	-108.331842	-11.043212	130.200008
3.900000	-11.097725	-170.242520	-0.505619	-109.747459	-0.505619	-109.747459	-11.021671	128.011541
3.950000	-11.081172	-170.892491	-0.510431	-111.165260	-0.510431	-111.165260	-11.001210	125.804601
4.000000	-11.065736	-171.527850	-0.515219	-112.585313	-0.515219	-112.585313	-10.981695	123.578960
4.050000	-11.051287	-172.148459	-0.519994	-114.007682	-0.519994	-114.007682	-10.962991	121.334426
4.100000	-11.037693	-172.754205	-0.524767	-115.432428	-0.524767	-115.432428	-10.944961	119.070837
4.150000	-11.024819	-173.344999	-0.529550	-116.859609	-0.529550	-116.859609	-10.927465	116.788073
4.200000	-11.012526	-173.920782	-0.534353	-118.289280	-0.534353	-118.289280	-10.910360	114.486052
4.250000	-11.000675	-174.481523	-0.539189	-119.721495	-0.539189	-119.721495	-10.893501	112.164737
4.300000	-10.989120	-175.027229	-0.544070	-121.156303	-0.544070	-121.156303	-10.876744	109.824139
4.350000	-10.977715	-175.557943	-0.549009	-122.593748	-0.549009	-122.593748	-10.859939	107.464318
4.400000	-10.966308	-176.073588	-0.554020	-124.033905	-0.554020	-124.033905	-10.842933	105.085185
4.450000	-10.954742	-176.574301	-0.559117	-125.476811	-0.559117	-125.476811	-10.825570	102.686919
4.500000	-10.942865	-177.060424	-0.564313	-126.922474	-0.564313	-126.922474	-10.807704	100.269965
4.550000	-10.930520	-177.532192	-0.569621	-128.370923	-0.569621	-128.370923	-10.789181	97.834623
4.600000	-10.917551	-177.989891	-0.575057	-129.822186	-0.575057	-129.822186	-10.769854	95.381257
4.650000	-10.903802	-178.433866	-0.580635	-131.276286	-0.580635	-131.276286	-10.749573	92.910299
4.700000	-10.889116	-178.864523	-0.586369	-132.733240	-0.586369	-132.733240	-10.728191	90.422251
4.750000	-10.873337	-179.282330	-0.592275	-134.193062	-0.592275	-134.193062	-10.705566	87.917682
4.800000	-10.856312	-179.687819	-0.598368	-135.655762	-0.598368	-135.655762	-10.681556	85.397236
4.850000	-10.837889	179.918413	-0.604662	-137.121345	-0.604662	-137.121345	-10.656025	82.861625
4.900000	-10.817920	179.535700	-0.611174	-138.589810	-0.611174	-138.589810	-10.628844	80.311630
4.950000	-10.796261	179.163312	-0.617918	-140.061154	-0.617918	-140.061154	-10.599886	77.748104
5.000000	-10.772774	178.800452	-0.624911	-141.535365	-0.624911	-141.535365	-10.569036	75.171966
5.050000	-10.747278	178.446424	-0.632173	-143.012491	-0.632173	-143.012491	-10.536134	72.583971
5.100000	-10.719690	178.100092	-0.639715	-144.492450	-0.639715	-144.492450	-10.501122	69.985441
5.150000	-10.689894	177.760465	-0.647552	-145.975216	-0.647552	-145.975216	-10.463909	67.377484
5.200000	-10.657782	177.426497	-0.655700	-147.460760	-0.655700	-147.460760	-10.424415	64.761258
5.250000	-10.623256	177.097091	-0.664172	-148.949045	-0.664172	-148.949045	-10.382569	62.137966
5.300000	-10.586229	176.771100	-0.672985	-150.440032	-0.672985	-150.440032	-10.338311	59.508854
5.350000	-10.546628	176.447339	-0.682152	-151.933676	-0.682152	-151.933676	-10.291596	56.875204
5.400000	-10.504390	176.124586	-0.691689	-153.429924	-0.691689	-153.429924	-10.242388	54.238322
5.450000	-10.459464	175.801593	-0.701609	-154.928723	-0.701609	-154.928723	-10.190665	51.599536
5.500000	-10.411815	175.477090	-0.711925	-156.430012	-0.711925	-156.430012	-10.136417	48.960187
5.550000	-10.361419	175.149797	-0.722651	-157.933726	-0.722651	-157.933726	-10.079648	46.321622
5.600000	-10.308267	174.818429	-0.733799	-159.439795	-0.733799	-159.439795	-10.020372	43.685182
5.650000	-10.252331	174.481632	-0.745387	-160.948169	-0.745387	-160.948169	-9.958588	41.052256
5.700000	-10.193629	174.138094	-0.757426	-162.458766	-0.757426	-162.458766	-9.894334	38.424203
5.750000	-10.132227	173.786629	-0.769923	-163.971478	-0.769923	-163.971478	-9.827696	35.802276
5.800000	-10.068171	173.426019	-0.782889	-165.486219	-0.782889	-165.486219	-9.758736	33.187732
5.850000	-10.001519	173.055084	-0.796333	-167.002898	-0.796333	-167.002898	-9.687528	30.581793
5.900000	-9.932341	172.672688	-0.810263	-168.521421	-0.810263	-168.521421	-9.614154	27.985634
5.950000	-9.860718	172.277744	-0.824690	-170.041691	-0.824690	-170.041691	-9.538707	25.400384
6.000000	-9.786741	171.869222	-0.839619	-171.563607	-0.839619	-171.563607	-9.461285	22.827119
6.050000	-9.710511	171.446150	-0.855059	-173.087066	-0.855059	-173.087066	-9.381996	20.266858
6.100000	-9.632137	171.007623	-0.871014	-174.611964	-0.871014	-174.611964	-9.300952	17.720560
6.150000	-9.551733	170.552803	-0.887491	-176.138193	-0.887491	-176.138193	-9.218270	15.189124
6.200000	-9.469424	170.080924	-0.904494	-177.665645	-0.904494	-177.665645	-9.134072	12.673382
6.250000	-9.385334	169.591291	-0.922026	-179.194210	-0.922026	-179.194210	-9.048482	10.174105
6.300000	-9.299545	169.082871	-0.940101	179.276205	-0.940101	179.276205	-8.961583	7.692385
6.350000	-9.212245	168.555507	-0.958710	177.745735	-0.958710	177.745735	-8.873553	5.228499
6.400000	-9.123573	168.008729	-0.977854	176.214493	-0.977854	176.214493	-8.784520	2.783019
6.450000	-9.033664	167.442140	-0.997534	174.682590	-0.997534	174.682590	-8.694612	0.356451
6.500000	-8.942657	166.855414	-1.017748	173.150139	-1.017748	173.150139	-8.603959	-2.050757
6.550000	-8.850687	166.248289	-1.038495	171.617250	-1.038495	171.617250	-8.512685	-4.438219
6.600000	-8.757889	165.620573	-1.059774	170.084034	-1.059774	170.084034	-8.420914	-6.805604
6.650000	-8.664396	164.972132	-1.081580	168.550599	-1.081580	168.550599	-8.328767	-9.152638
6.700000	-8.570337	164.302893	-1.103911	167.017054	-1.103911	167.017054	-8.236361	-11.479099
6.750000	-8.475838	163.612839	-1.126763	165.483503	-1.126763	165.483503	-8.143812	-13.784813
6.800000	-8.381022	162.902002	-1.150129	163.950052	-1.150129	163.950052	-8.051227	-16.069653
6.850000	-8.286006	162.170464	-1.174004	162.416801	-1.174004	162.416801	-7.958714	-18.333538
6.900000	-8.190892	161.418129	-1.198387	160.883854	-1.198387	160.883854	-7.866366	-20.576197
6.950000	-8.095791	160.645169	-1.223270	159.351312	-1.223270	159.351312	-7.774281	-22.797627
7.000000	-8.000819	159.852011	-1.248641	157.819265	-1.248641	157.819265	-7.682561	-24.998090
7.050000	-7.906073	159.038892	-1.274492	156.287804	-1.274492	156.287804	-7.591292	-27.177653
7.100000	-7.811644	158.206077	-1.300813	154.757019	-1.300813	154.757019	-7.500554	-29.336412
7.150000	-7.717619	157.353856	-1.327597	153.226994	-1.327597	153.226994	-7.410425	-31.474488
7.200000	-7.624079	156.482541	-1.354834	151.697812	-1.354834	151.697812	-7.320976	-33.592029
7.250000	-7.531098	155.592463	-1.382513	150.169552	-1.382513	150.169552	-7.232274	-35.689205
7.300000	-7.438747	154.683969	-1.410624	148.642290	-1.410624	148.642290	-7.144379	-37.766206
7.350000	-7.347091	153.757419	-1.439158	147.116099	-1.439158	147.116099	-7.057350	-39.823239
7.400000	-7.256189	152.813183	-1.468102	145.591049	-1.468102	145.591049	-6.971238	-41.860529
7.450000	-7.166094	151.851640	-1.497445	144.067206	-1.497445	144.067206	-6.886092	-43.878314
7.500000	-7.076858	150.873174	-1.527177	142.544634	-1.527177	142.544634	-6.801955	-45.876845
7.550000	-6.988525	149.877823	-1.557290	141.023423	-1.557290	141.023423	-6.718872	-47.855979
7.600000	-6.901137	148.866346	-1.587767	139.503600	-1.587767	139.503600	-6.636877	-49.816408
7.650000	-6.814730	147.839134	-1.618595	137.985220	-1.618595	137.985220	-6.555999	-51.758413
7.700000	-6.729335	146.796578	-1.649761	136.468333	-1.649761	136.468333	-6.476266	-53.682283
7.750000	-6.644980	145.739065	-1.681255	134.952984	-1.681255	134.952984	-6.397703	-55.588315
7.800000	-6.561690	144.666979	-1.713061	133.439216	-1.713061	133.439216	-6.320331	-57.476807
7.850000	-6.479484	143.580701	-1.745168	131.927070	-1.745168	131.927070	-6.244168	-59.348066
7.900000	-6.398379	142.480606	-1.777563	130.416581	-1.777563	130.416581	-6.169228	-61.202401
7.950000	-6.318390	141.367062	-1.810232	128.907783	-1.810232	128.907783	-6.095524	-63.040123
8.000000	-6.239528	140.240431	-1.843163	127.400705	-1.843163	127.400705	-6.023065	-64.861546
8.050000	-6.161802	139.101069	-1.876341	125.895374	-1.876341	125.895374	-5.951859	-66.666987
8.100000	-6.085216	137.949324	-1.909755	124.391812	-1.909755	124.391812	-5.881910	-68.456762
8.150000	-6.009781	136.785407	-1.943391	122.890058	-1.943391	122.890058	-5.813229	-70.231027
8.200000	-5.935499	135.609663	-1.977235	121.390128	-1.977235	121.390128	-5.745817	-71.990111
8.250000	-5.862364	134.422545	-2.011274	119.892014	-2.011274	119.892014	-5.679665	-73.734498
8.300000	-5.790373	133.224368	-2.045494	118.395726	-2.045494	118.395726	-5.614771	-75.464508
8.350000	-5.719538	132.015136	-2.079883	116.901322	-2.079883	116.901322	-5.551152	-77.180060
8.400000	-5.649797	130.796215	-2.114425	115.408614	-2.114425	115.408614	-5.488722	-78.882874
8.450000	-5.581231	129.566297	-2.149109	113.917886	-2.149109	113.917886	-5.427598	-80.571160
8.500000	-5.513753	128.327024	-2.183923	112.428885	-2.183923	112.428885	-5.367661	-82.247031
8.550000	-5.447400	127.077918	-2.218852	110.941743	-2.218852	110.941743	-5.308966	-83.909798
8.600000	-5.382150	125.819427	-2.253884	109.456411	-2.253884	109.456411	-5.251485	-85.560017
8.650000	-5.317969	124.552168	-2.289010	107.972805	-2.289010	107.972805	-5.195177	-87.198475
8.700000	-5.254903	123.275529	-2.324210	106.491075	-2.324210	106.491075	-5.140107	-88.824321
8.750000	-5.192846	121.991098	-2.359485	105.010928	-2.359485	105.010928	-5.086135	-90.439667
8.800000	-5.131915	120.697323	-2.394805	103.532703	-2.394805	103.532703	-5.033424	-92.042405
8.850000	-5.071965	119.396194	-2.430177	102.056007	-2.430177	102.056007	-4.981783	-93.635207
8.900000	-5.013078	118.086697	-2.465576	100.581066	-2.465576	100.581066	-4.931325	-95.216699
8.950000	-4.955180	116.769806	-2.501001	99.107684	-2.501001	99.107684	-4.881955	-96.788199
9.000000	-4.898281	115.445445	-2.536437	97.635883	-2.536437	97.635883	-4.833689	-98.349607
9.050000	-4.842377	114.113684	-2.571873	96.165649	-2.571873	96.165649	-4.786528	-99.901028
9.100000	-4.787407	112.775279	-2.607309	94.696818	-2.607309	94.696818	-4.740391	-101.443496
9.150000	-4.733437	111.429500	-2.642716	93.229538	-2.642716	93.229538	-4.695373	-102.976048
9.200000	-4.680348	110.077713	-2.678113	91.763512	-2.678113	91.763512	-4.651315	-104.500541
9.250000	-4.628242	108.718859	-2.713460	90.298944	-2.713460	90.298944	-4.608357	-106.015580
9.300000	-4.576998	107.354232	-2.748780	88.835549	-2.748780	88.835549	-4.566343	-107.522925
9.350000	-4.526672	105.983309	-2.784044	87.373411	-2.784044	87.373411	-4.525347	-109.021911
9.400000	-4.477215	104.606621	-2.819257	85.912396	-2.819257	85.912396	-4.485307	-110.513277
9.450000	-4.428613	103.224353	-2.854413	84.452440	-2.854413	84.452440	-4.446206	-111.997301
9.500000	-4.380885	101.836366	-2.889497	82.993535	-2.889497	82.993535	-4.408072	-113.473837
9.550000	-4.333951	100.443461	-2.924526	81.535498	-2.924526	81.535498	-4.370800	-114.943974
9.600000	-4.287896	99.044918	-2.959460	80.078412	-2.959460	80.078412	-4.334503	-116.406815
9.650000	-4.242598	97.641889	-2.994338	78.622041	-2.994338	78.622041	-4.299021	-117.863892
9.700000	-4.198142	96.233710	-3.029119	77.166441	-3.029119	77.166441	-4.264466	-119.314392
9.750000	-4.154439	94.821190	-3.063832	75.711441	-3.063832	75.711441	-4.230722	-120.759392
9.800000	-4.111521	93.404159	-3.098458	74.257010	-3.098458	74.257010	-4.197828	-122.198719
9.850000	-4.069364	91.982877	-3.133000	72.803058	-3.133000	72.803058	-4.165756	-123.632741
9.900000	-4.027936	90.557679	-3.167469	71.349487	-3.167469	71.349487	-4.134461	-125.061919
9.950000	-3.987278	89.128361	-3.201843	69.896249	-3.201843	69.896249	-4.103994	-126.486045
10.000000	-3.947296	87.695683	-3.236160	68.443222	-3.236160	68.443222	-4.074237	-127.906088
