! freq	dB(S11)	phase(S11)	dB(S12)	phase(S12)	
!     	dB(S21)	phase(S21)	dB(S22)	phase(S22)	
!S-par simulation data
#  GHz  S  DB  R 50
0.000000	-74.451395	0.000000	-0.001645	0.000000	-0.001645	0.000000	-74.451395	0.000000
0.050000	-46.346040	78.166753	-0.008693	-3.844202	-0.008693	-3.844202	-46.346850	78.004305
0.100000	-40.790693	77.321831	-0.016405	-7.629912	-0.016405	-7.629912	-40.788589	77.160762
0.150000	-37.395614	75.127846	-0.022175	-11.403892	-0.022175	-11.403892	-37.390717	74.898837
0.200000	-34.945045	72.303963	-0.027519	-15.174664	-0.027519	-15.174664	-34.939045	71.997634
0.250000	-33.028420	69.154146	-0.032825	-18.942422	-0.032825	-18.942422	-33.022159	68.769733
0.300000	-31.456203	65.847842	-0.038151	-22.707672	-0.038151	-22.707672	-31.450134	65.386320
0.350000	-30.125248	62.459875	-0.043491	-26.471235	-0.043491	-26.471235	-30.119594	61.922432
0.400000	-28.973751	59.024221	-0.048852	-30.233834	-0.048852	-30.233834	-28.968550	58.412326
0.450000	-27.962721	55.552484	-0.054264	-33.996123	-0.054264	-33.996123	-27.957820	54.868808
0.500000	-27.064283	52.046833	-0.059754	-37.758648	-0.059754	-37.758648	-27.059444	51.295632
0.550000	-26.257528	48.502939	-0.065349	-41.521741	-0.065349	-41.521741	-26.252578	47.690010
0.600000	-25.526321	44.917910	-0.071076	-45.285664	-0.071076	-45.285664	-25.521206	44.050239
0.650000	-24.858115	41.293425	-0.076958	-49.050643	-0.076958	-49.050643	-24.852875	40.378924
0.700000	-24.242741	37.638756	-0.082992	-52.816716	-0.082992	-52.816716	-24.237429	36.685304
0.750000	-23.672934	33.960198	-0.089182	-56.583937	-0.089182	-56.583937	-23.667570	32.976398
0.800000	-23.143446	30.262151	-0.095528	-60.352394	-0.095528	-60.352394	-23.138007	29.258211
0.850000	-22.649941	26.548850	-0.102019	-64.122062	-0.102019	-64.122062	-22.644363	25.536274
0.900000	-22.188971	22.822529	-0.108640	-67.892905	-0.108640	-67.892905	-22.183160	21.814312
0.950000	-21.757853	19.084041	-0.115377	-71.664896	-0.115377	-71.664896	-21.751691	18.095106
1.000000	-21.354358	15.333507	-0.122213	-75.437999	-0.122213	-75.437999	-21.347708	14.380844
1.050000	-20.976649	11.570463	-0.129133	-79.212179	-0.129133	-79.212179	-20.969352	10.673358
1.100000	-20.623202	7.794015	-0.136120	-82.987415	-0.136120	-82.987415	-20.615082	6.974302
1.150000	-20.292757	4.002923	-0.143160	-86.763707	-0.143160	-86.763707	-20.283613	3.285271
1.200000	-19.984274	0.195655	-0.150238	-90.541085	-0.150238	-90.541085	-19.973884	-0.392109
1.250000	-19.696904	-3.629591	-0.157338	-94.319618	-0.157338	-94.319618	-19.685017	-4.056117
1.300000	-19.430232	-7.475380	-0.164446	-98.099443	-0.164446	-98.099443	-19.416558	-7.704506
1.350000	-19.183484	-11.343691	-0.171544	-101.880694	-0.171544	-101.880694	-19.167702	-11.335492
1.400000	-18.956249	-15.237202	-0.178613	-105.663572	-0.178613	-105.663572	-18.937997	-14.946759
1.450000	-18.748230	-19.158920	-0.185633	-109.448326	-0.185633	-109.448326	-18.727099	-18.535712
1.500000	-18.559234	-23.112234	-0.192582	-113.235250	-0.192582	-113.235250	-18.534759	-22.099422
1.550000	-18.389160	-27.100959	-0.199435	-117.024677	-0.199435	-117.024677	-18.360813	-25.634576
1.600000	-18.237992	-31.129399	-0.206165	-120.816986	-0.206165	-120.816986	-18.205173	-29.137416
1.650000	-18.105791	-35.202426	-0.212746	-124.612594	-0.212746	-124.612594	-18.067815	-32.603670
1.700000	-17.992691	-39.325570	-0.219150	-128.411958	-0.219150	-128.411958	-17.948776	-36.028468
1.750000	-17.898885	-43.505120	-0.225350	-132.215574	-0.225350	-132.215574	-17.848137	-39.406250
1.800000	-17.824624	-47.748262	-0.231320	-136.023979	-0.231320	-136.023979	-17.766022	-42.730653
1.850000	-17.770206	-52.063223	-0.237037	-139.837750	-0.237037	-139.837750	-17.702576	-45.994381
1.900000	-17.736186	-56.460465	-0.242477	-143.657576	-0.242477	-143.657576	-17.658163	-49.188197
1.950000	-17.722926	-60.951319	-0.247623	-147.484141	-0.247623	-147.484141	-17.632940	-52.302086
2.000000	-17.730551	-65.547637	-0.252468	-151.318084	-0.252468	-151.318084	-17.626812	-55.325583
2.050000	-17.759361	-70.264181	-0.257006	-155.160150	-0.257006	-155.160150	-17.639812	-58.245769
2.100000	-17.809579	-75.118091	-0.261240	-159.011129	-0.261240	-159.011129	-17.671852	-61.047759
2.150000	-17.881285	-80.129281	-0.265181	-162.871850	-0.265181	-162.871850	-17.722661	-63.714439
2.200000	-17.974329	-85.320872	-0.268848	-166.743182	-0.268848	-166.743182	-17.791700	-66.226203
2.250000	-18.088213	-90.719636	-0.272271	-170.626035	-0.272271	-170.626035	-17.878045	-68.560720
2.300000	-18.221923	-96.356402	-0.275492	-174.521351	-0.275492	-174.521351	-17.980239	-70.692802
2.350000	-18.373700	-102.266334	-0.278563	-178.430108	-0.278563	-178.430108	-18.096102	-72.594457
2.400000	-18.540739	-108.488908	-0.281554	177.646692	-0.281554	177.646692	-18.222482	-74.235260
2.450000	-18.718798	-115.067339	-0.284544	173.708020	-0.284544	173.708020	-18.354978	-75.583265
2.500000	-18.901727	-122.047044	-0.287634	169.752833	-0.287634	169.752833	-18.487609	-76.606721
2.550000	-19.080516	-129.483194	-0.290945	165.779673	-0.290945	165.779673	-18.612079	-77.268743
2.600000	-19.243428	-137.404768	-0.294611	161.787844	-0.294611	161.787844	-18.718321	-77.555819
2.650000	-19.375573	-145.834489	-0.298784	157.776305	-0.298784	157.776305	-18.794142	-77.461210
2.700000	-19.459201	-154.769420	-0.303639	153.744037	-0.303639	153.744037	-18.825700	-76.998943
2.750000	-19.477255	-164.158964	-0.309343	149.690667	-0.309343	149.690667	-18.800478	-76.217506
2.800000	-19.407393	-173.941503	-0.316155	145.614185	-0.316155	145.614185	-18.701876	-75.173154
2.850000	-19.235110	176.022829	-0.324310	141.513990	-0.324310	141.513990	-18.519760	-73.975173
2.900000	-18.952906	165.902606	-0.334066	137.389411	-0.334066	137.389411	-18.248801	-72.750732
2.950000	-18.562225	155.874432	-0.345704	133.239829	-0.345704	133.239829	-17.889689	-71.632455
3.000000	-18.072963	146.098146	-0.359531	129.064680	-0.359531	129.064680	-17.448882	-70.743404
3.050000	-17.501459	136.696604	-0.375876	124.863546	-0.375876	124.863546	-16.937594	-70.183715
3.100000	-16.867207	127.746384	-0.395087	120.636172	-0.395087	120.636172	-16.369845	-70.022943
3.150000	-16.189360	119.282605	-0.417551	116.382350	-0.417551	116.382350	-15.760072	-70.301657
3.200000	-15.485693	111.302598	-0.443661	112.102230	-0.443661	112.102230	-15.122492	-71.030601
3.250000	-14.771240	103.777859	-0.473796	107.796336	-0.473796	107.796336	-14.469872	-72.197328
3.300000	-14.057328	96.670078	-0.508366	103.465305	-0.508366	103.465305	-13.812402	-73.778513
3.350000	-13.352585	89.934533	-0.547763	99.110145	-0.547763	99.110145	-13.158323	-75.741767
3.400000	-12.662369	83.533694	-0.592498	94.731638	-0.592498	94.731638	-12.513124	-78.059165
3.450000	-11.991527	77.422030	-0.642922	90.331612	-0.642922	90.331612	-11.881995	-80.690986
3.500000	-11.342850	71.563279	-0.699440	85.911869	-0.699440	85.911869	-11.268229	-83.604067
3.550000	-10.718112	65.925777	-0.762442	81.474520	-0.762442	81.474520	-10.674134	-86.767420
3.600000	-10.118354	60.482394	-0.832298	77.021975	-0.832298	77.021975	-10.101271	-90.152592
3.650000	-9.544095	55.210208	-0.909351	72.556940	-0.909351	72.556940	-9.550634	-93.733701
3.700000	-8.995484	50.090069	-0.993909	68.082393	-0.993909	68.082393	-9.022800	-97.487307
3.750000	-8.472410	45.106130	-1.086243	63.601564	-1.086243	63.601564	-8.518027	-101.392208
3.800000	-7.974542	40.247017	-1.186681	59.117921	-1.186681	59.117921	-8.036302	-105.430842
3.850000	-7.501545	35.500284	-1.295297	54.635198	-1.295297	54.635198	-7.577567	-109.583645
3.900000	-7.052877	30.857492	-1.412212	50.157181	-1.412212	50.157181	-7.141510	-113.834792
3.950000	-6.627925	26.311895	-1.537492	45.687751	-1.537492	45.687751	-6.727718	-118.169818
4.000000	-6.226022	21.858152	-1.671146	41.230836	-1.671146	41.230836	-6.335688	-122.575464
4.050000	-5.846457	17.492071	-1.813127	36.790365	-1.813127	36.790365	-5.964849	-127.039549
4.100000	-5.488487	13.210386	-1.963329	32.370216	-1.963329	32.370216	-5.614576	-131.550870
4.150000	-5.151340	9.010569	-2.121593	27.974176	-2.121593	27.974176	-5.284195	-136.099117
4.200000	-4.834304	4.891418	-2.287748	23.606194	-2.287748	23.606194	-4.973075	-140.674983
4.250000	-4.536542	0.850996	-2.461498	19.269671	-2.461498	19.269671	-4.680449	-145.269465
4.300000	-4.257191	-3.112289	-2.642518	14.967722	-2.642518	14.967722	-4.405514	-149.874471
4.350000	-3.995417	-6.999439	-2.830463	10.703359	-2.830463	10.703359	-4.147488	-154.482721
4.400000	-3.750387	-10.811333	-3.024961	6.479337	-3.024961	6.479337	-3.905580	-159.087578
4.450000	-3.521273	-14.548786	-3.225611	2.298136	-3.225611	2.298136	-3.678998	-163.683012
4.500000	-3.307252	-18.212608	-3.431992	-1.838042	-3.431992	-1.838042	-3.466952	-168.263566
4.550000	-3.107515	-21.803637	-3.643667	-5.927275	-3.643667	-5.927275	-3.268661	-172.824322
4.600000	-2.921834	-25.318315	-3.860120	-9.964781	-3.860120	-9.964781	-3.083895	-177.359093
4.650000	-2.747996	-28.768949	-4.081062	-13.957131	-4.081062	-13.957131	-2.910533	178.131644
4.700000	-2.586834	-32.144020	-4.305788	-17.894206	-4.305788	-17.894206	-2.749352	173.656687
4.750000	-2.436453	-35.454073	-4.534123	-21.782097	-4.534123	-21.782097	-2.598537	169.214679
4.800000	-2.296802	-38.695091	-4.765423	-25.616140	-4.765423	-25.616140	-2.458021	164.811088
4.850000	-2.167052	-41.869711	-4.999316	-29.396935	-4.999316	-29.396935	-2.327002	160.447540
4.900000	-2.046278	-44.981877	-5.235541	-33.126303	-5.235541	-33.126303	-2.204590	156.124496
4.950000	-1.934564	-48.026929	-5.473254	-36.799046	-5.473254	-36.799046	-2.090847	151.847874
5.000000	-1.830282	-51.016036	-5.712838	-40.423482	-5.712838	-40.423482	-1.984224	147.612289
5.050000	-1.733965	-53.940839	-5.953055	-43.991182	-5.953055	-43.991182	-1.885205	143.426444
5.100000	-1.644622	-56.807393	-6.193916	-47.506296	-6.193916	-47.506296	-1.792845	139.288182
5.150000	-1.561772	-59.617392	-6.435078	-50.969286	-6.435078	-50.969286	-1.706679	135.198377
5.200000	-1.484962	-62.372550	-6.676218	-54.380700	-6.676218	-54.380700	-1.626272	131.157736
5.250000	-1.413771	-65.074593	-6.917026	-57.741161	-6.917026	-57.741161	-1.551217	127.166819
5.300000	-1.347804	-67.725251	-7.157209	-61.051352	-7.157209	-61.051352	-1.481134	123.226049
5.350000	-1.286692	-70.326251	-7.396489	-64.312012	-7.396489	-64.312012	-1.415671	119.335730
5.400000	-1.230093	-72.879308	-7.634601	-67.523919	-7.634601	-67.523919	-1.354500	115.496060
5.450000	-1.177686	-75.386121	-7.871295	-70.687885	-7.871295	-70.687885	-1.297316	111.707136
5.500000	-1.129176	-77.848365	-8.106335	-73.804751	-8.106335	-73.804751	-1.243836	107.968971
5.550000	-1.084287	-80.267690	-8.339496	-76.875375	-8.339496	-76.875375	-1.193798	104.281497
5.600000	-1.042763	-82.645717	-8.570564	-79.900634	-8.570564	-79.900634	-1.146962	100.644577
5.650000	-1.004399	-84.983620	-8.799246	-82.880939	-8.799246	-82.880939	-1.103130	97.058551
5.700000	-0.968967	-87.283001	-9.025348	-85.817213	-9.025348	-85.817213	-1.062091	93.523147
5.750000	-0.936235	-89.545806	-9.248780	-88.710836	-9.248780	-88.710836	-1.023624	90.037500
5.800000	-0.906016	-91.773510	-9.469369	-91.562704	-9.469369	-91.562704	-0.987555	86.601244
5.850000	-0.878135	-93.967550	-9.686951	-94.373713	-9.686951	-94.373713	-0.953721	83.213969
5.900000	-0.852435	-96.129321	-9.901368	-97.144755	-9.901368	-97.144755	-0.921974	79.875227
5.950000	-0.828765	-98.260185	-10.112470	-99.876717	-10.112470	-99.876717	-0.892176	76.584532
6.000000	-0.806991	-100.361459	-10.320112	-102.570483	-10.320112	-102.570483	-0.864200	73.341366
6.050000	-0.787053	-102.433270	-10.523794	-105.225358	-10.523794	-105.225358	-0.837995	70.147188
6.100000	-0.768680	-104.479506	-10.724201	-107.845777	-10.724201	-107.845777	-0.813305	66.996885
6.150000	-0.751853	-106.499861	-10.920748	-110.430588	-10.920748	-110.430588	-0.790117	63.892399
6.200000	-0.736473	-108.495508	-11.113311	-112.980650	-11.113311	-112.980650	-0.768339	60.833112
6.250000	-0.722448	-110.467589	-11.301771	-115.496812	-11.301771	-115.496812	-0.747888	57.818380
6.300000	-0.709745	-112.416283	-11.485659	-117.978519	-11.485659	-117.978519	-0.728736	54.849421
6.350000	-0.698227	-114.343687	-11.665221	-120.428080	-11.665221	-120.428080	-0.710757	51.923622
6.400000	-0.687824	-116.250842	-11.840350	-122.846327	-11.840350	-122.846327	-0.693886	49.040292
6.450000	-0.678469	-118.138761	-12.010939	-125.234082	-12.010939	-125.234082	-0.678064	46.198727
6.500000	-0.670101	-120.008430	-12.176882	-127.592165	-12.176882	-127.592165	-0.663236	43.398216
6.550000	-0.662664	-121.860808	-12.338079	-129.921392	-12.338079	-129.921392	-0.649353	40.638037
6.600000	-0.656108	-123.696832	-12.494429	-132.222573	-12.494429	-132.222573	-0.636367	37.917461
6.650000	-0.650383	-125.517415	-12.645833	-134.496519	-12.645833	-134.496519	-0.624237	35.235753
6.700000	-0.645447	-127.323450	-12.792194	-136.744034	-12.792194	-136.744034	-0.612923	32.592174
6.750000	-0.641259	-129.115812	-12.933415	-138.965925	-12.933415	-138.965925	-0.602391	29.985979
6.800000	-0.637783	-130.895354	-13.069402	-141.162996	-13.069402	-141.162996	-0.592606	27.416425
6.850000	-0.634986	-132.662918	-13.200060	-143.336051	-13.200060	-143.336051	-0.583540	24.882761
6.900000	-0.632836	-134.419329	-13.325296	-145.485898	-13.325296	-145.485898	-0.575165	22.384241
6.950000	-0.631306	-136.165397	-13.445016	-147.613343	-13.445016	-147.613343	-0.567456	19.920115
7.000000	-0.630371	-137.901925	-13.559128	-149.719198	-13.559128	-149.719198	-0.560390	17.489635
7.050000	-0.630008	-139.629703	-13.667538	-151.804277	-13.667538	-151.804277	-0.553947	15.092054
7.100000	-0.630196	-141.349514	-13.770154	-153.869399	-13.770154	-153.869399	-0.548108	12.726625
7.150000	-0.630918	-143.062135	-13.866884	-155.915390	-13.866884	-155.915390	-0.542856	10.392605
7.200000	-0.632158	-144.768339	-13.957634	-157.943080	-13.957634	-157.943080	-0.538177	8.089251
7.250000	-0.633901	-146.468895	-14.042310	-159.953308	-14.042310	-159.953308	-0.534055	5.815824
7.300000	-0.636137	-148.164572	-14.120819	-161.946921	-14.120819	-161.946921	-0.530481	3.571586
7.350000	-0.638855	-149.856140	-14.193066	-163.924774	-14.193066	-163.924774	-0.527442	1.355802
7.400000	-0.642047	-151.544372	-14.258955	-165.887735	-14.258955	-165.887735	-0.524932	-0.832261
7.450000	-0.645708	-153.230047	-14.318390	-167.836681	-14.318390	-167.836681	-0.522941	-2.993335
7.500000	-0.649834	-154.913952	-14.371273	-169.772501	-14.371273	-169.772501	-0.521464	-5.128148
7.550000	-0.654443	-156.596877	-14.417201	-171.695612	-14.417201	-171.695612	-0.520519	-7.236354
7.600000	-0.659515	-158.279713	-14.456374	-173.607505	-14.456374	-173.607505	-0.520080	-9.319822
7.650000	-0.665053	-159.963285	-14.488687	-175.509116	-14.488687	-175.509116	-0.520145	-11.379278
7.700000	-0.671061	-161.648439	-14.514033	-177.401399	-14.514033	-177.401399	-0.520715	-13.415452
7.750000	-0.677546	-163.336045	-14.532303	-179.285329	-14.532303	-179.285329	-0.521791	-15.429072
7.800000	-0.684519	-165.026995	-14.543385	178.838099	-14.543385	178.838099	-0.523376	-17.420870
7.850000	-0.691990	-166.722214	-14.547165	176.967868	-14.547165	176.967868	-0.525476	-19.391583
7.900000	-0.699974	-168.422659	-14.543523	175.102934	-14.543523	175.102934	-0.528097	-21.341950
7.950000	-0.708490	-170.129329	-14.532337	173.242226	-14.532337	173.242226	-0.531249	-23.272717
8.000000	-0.717559	-171.843262	-14.513481	171.384641	-14.513481	171.384641	-0.534942	-25.184639
8.050000	-0.727204	-173.565550	-14.486822	169.529043	-14.486822	169.529043	-0.539191	-27.078479
8.100000	-0.737455	-175.297340	-14.452224	167.674257	-14.452224	167.674257	-0.544011	-28.955011
8.150000	-0.748345	-177.039842	-14.409543	165.819067	-14.409543	165.819067	-0.549423	-30.815022
8.200000	-0.759912	-178.794339	-14.358629	163.962207	-14.358629	163.962207	-0.555449	-32.659314
8.250000	-0.772198	179.437806	-14.299326	162.102359	-14.299326	162.102359	-0.562117	-34.488708
8.300000	-0.785255	177.655137	-14.231467	160.238146	-14.231467	160.238146	-0.569457	-36.304044
8.350000	-0.799191	175.855000	-14.154304	158.367651	-14.154304	158.367651	-0.577552	-38.105499
8.400000	-0.813844	174.040508	-14.070118	156.491464	-14.070118	156.491464	-0.586250	-39.896818
8.450000	-0.829765	172.199746	-13.973628	154.603363	-13.973628	154.603363	-0.596001	-41.673269
8.500000	-0.846611	170.339825	-13.869247	152.705676	-13.869247	152.705676	-0.606501	-43.441139
8.550000	-0.864429	168.459800	-13.757018	150.797599	-13.757018	150.797599	-0.617778	-45.200862
8.600000	-0.883684	166.549704	-13.633296	148.873108	-13.633296	148.873108	-0.630197	-46.950673
8.650000	-0.904476	164.607673	-13.498395	146.930104	-13.498395	146.930104	-0.643812	-48.692871
8.700000	-0.926605	162.638338	-13.354979	144.970770	-13.354979	144.970770	-0.658453	-50.429963
8.750000	-0.950146	160.640433	-13.203164	142.994086	-13.203164	142.994086	-0.674169	-52.162450
8.800000	-0.976327	158.589217	-13.035001	140.983833	-13.035001	140.983833	-0.691881	-53.889823
8.850000	-1.004429	156.500762	-12.857477	138.949457	-12.857477	138.949457	-0.711016	-55.615668
8.900000	-1.034374	154.377239	-12.672028	136.892225	-12.672028	136.892225	-0.731509	-57.340515
8.950000	-1.067471	152.194174	-12.471833	134.795533	-12.471833	134.795533	-0.754312	-59.065747
9.000000	-1.103704	149.953992	-12.259127	132.660436	-12.259127	132.660436	-0.779388	-60.793170
9.050000	-1.143582	147.649324	-12.033142	130.481559	-12.033142	130.481559	-0.807080	-62.524532
9.100000	-1.187345	145.278344	-11.794873	128.257304	-11.794873	128.257304	-0.837534	-64.261232
9.150000	-1.236204	142.822809	-11.541097	125.974844	-11.541097	125.974844	-0.871584	-66.006073
9.200000	-1.290075	140.287904	-11.275026	123.637516	-11.275026	123.637516	-0.909122	-67.759545
9.250000	-1.350982	137.644709	-10.991677	121.225136	-10.991677	121.225136	-0.951525	-69.525780
9.300000	-1.418931	134.898644	-10.694707	118.741401	-10.694707	118.741401	-0.998722	-71.304743
9.350000	-1.496178	132.021540	-10.380543	116.166859	-10.380543	116.166859	-1.052186	-73.100239
9.400000	-1.583903	129.003923	-10.050268	113.495213	-10.050268	113.495213	-1.112606	-74.913351
9.450000	-1.684017	125.828053	-9.703757	110.714732	-9.703757	110.714732	-1.181120	-76.745654
9.500000	-1.799966	122.458757	-9.338602	107.802179	-9.338602	107.802179	-1.259817	-78.599930
9.550000	-1.934601	118.873767	-8.955715	104.743889	-8.955715	104.743889	-1.350281	-80.476129
9.600000	-2.092131	115.038402	-8.554985	101.518734	-8.554985	101.518734	-1.454845	-82.373825
9.650000	-2.277949	110.910531	-8.136589	98.102138	-8.136589	98.102138	-1.576393	-84.290676
9.700000	-2.499339	106.434995	-7.700802	94.463423	-7.700802	94.463423	-1.718681	-86.221293
9.750000	-2.766359	101.537582	-7.248215	90.563895	-7.248215	90.563895	-1.886669	-88.154716
9.800000	-3.090279	96.145219	-6.782043	86.371500	-6.782043	86.371500	-2.085328	-90.071592
9.850000	-3.486998	90.152862	-6.305791	81.844099	-6.305791	81.844099	-2.321205	-91.940113
9.900000	-3.977528	83.422853	-5.824691	76.936197	-5.824691	76.936197	-2.601853	-93.708519
9.950000	-4.588696	75.778567	-5.346353	71.605223	-5.346353	71.605223	-2.934900	-95.296931
10.000000	-5.359180	66.926548	-4.880669	65.795648	-4.880669	65.795648	-3.328425	-96.570464
