! freq	dB(S11)	phase(S11)	dB(S12)	phase(S12)	
!     	dB(S21)	phase(S21)	dB(S22)	phase(S22)	
!S-par simulation data
#  GHz  S  DB  R 50
0.000000	-78.435200	0.000000	-0.001040	0.000000	-0.001040	0.000000	-78.435200	0.000000
0.050000	-31.440216	-95.559824	-0.012609	-6.435664	-0.012609	-6.435664	-31.456022	-96.854727
0.100000	-25.507666	-101.515275	-0.033488	-12.785865	-0.033488	-12.785865	-25.518173	-104.083280
0.150000	-22.113177	-107.362885	-0.056828	-19.092898	-0.056828	-19.092898	-22.121183	-111.196264
0.200000	-19.773163	-113.133827	-0.083470	-25.370944	-0.083470	-25.370944	-19.781385	-118.239325
0.250000	-18.022730	-118.830830	-0.113548	-31.617533	-0.113548	-31.617533	-18.032250	-125.215525
0.300000	-16.656005	-124.460637	-0.146343	-37.828639	-0.146343	-37.828639	-16.666763	-132.127297
0.350000	-15.563860	-130.030731	-0.180762	-44.001919	-0.180762	-44.001919	-15.575332	-138.979086
0.400000	-14.681244	-135.547538	-0.215598	-50.137131	-0.215598	-50.137131	-14.692847	-145.776339
0.450000	-13.966905	-141.016133	-0.249658	-56.235580	-0.249658	-56.235580	-13.978154	-152.524420
0.500000	-13.393108	-146.441211	-0.281810	-62.300055	-0.281810	-62.300055	-13.403653	-159.228883
0.550000	-12.940606	-151.827606	-0.311024	-68.334637	-0.311024	-68.334637	-12.950219	-165.895598
0.600000	-12.595876	-157.180560	-0.336403	-74.344525	-0.336403	-74.344525	-12.604422	-172.530864
0.650000	-12.348827	-162.505945	-0.357245	-80.335937	-0.357245	-80.335937	-12.356241	-179.141566
0.700000	-12.195501	-167.809288	-0.372854	-86.315461	-0.372854	-86.315461	-12.201756	174.265585
0.750000	-12.130702	-173.097325	-0.382951	-92.290853	-0.382951	-92.290853	-12.135800	167.682716
0.800000	-12.153260	-178.376127	-0.387378	-98.269821	-0.387378	-98.269821	-12.157213	161.102327
0.850000	-12.262110	176.348765	-0.386319	-104.259713	-0.386319	-104.259713	-12.264932	154.517307
0.900000	-12.464560	171.072835	-0.379789	-110.268756	-0.379789	-110.268756	-12.466262	147.920327
0.950000	-12.765354	165.792942	-0.368357	-116.304125	-0.368357	-116.304125	-12.765940	141.304978
1.000000	-13.174423	160.508451	-0.352688	-122.372740	-0.352688	-122.372740	-13.173894	134.665611
1.050000	-13.704604	155.222537	-0.333689	-128.480134	-0.333689	-128.480134	-13.702963	127.998326
1.100000	-14.375201	149.944000	-0.312392	-134.630926	-0.312392	-134.630926	-14.372480	121.300969
1.150000	-15.213917	144.690714	-0.289961	-140.828378	-0.289961	-140.828378	-15.210225	114.574010
1.200000	-16.261611	139.496127	-0.267653	-147.074204	-0.267653	-147.074204	-16.257257	107.821755
1.250000	-17.581401	134.423023	-0.246772	-153.368409	-0.246772	-153.368409	-17.577200	101.054693
1.300000	-19.280795	129.609608	-0.228709	-159.710286	-0.228709	-159.710286	-19.279042	94.296271
1.350000	-21.545110	125.330314	-0.214506	-166.093825	-0.214506	-166.093825	-21.552503	87.595952
1.400000	-24.792472	122.485567	-0.205448	-172.515701	-0.205448	-172.515701	-24.836053	81.104274
1.450000	-30.176607	125.146915	-0.202278	-178.967833	-0.202278	-178.967833	-30.448884	75.530971
1.500000	-39.884514	-175.277897	-0.205697	174.557425	-0.205697	174.557425	-49.445551	143.479065
1.550000	-31.008192	-103.883175	-0.216093	168.069119	-0.216093	168.069119	-31.633541	-124.707859
1.600000	-25.124876	-99.660117	-0.233319	161.576614	-0.233319	161.576614	-25.302353	-129.919678
1.650000	-21.640923	-102.347098	-0.257339	155.089294	-0.257339	155.089294	-21.727611	-136.372178
1.700000	-19.215085	-106.619392	-0.287179	148.615139	-0.287179	148.615139	-19.265474	-143.065129
1.750000	-17.395342	-111.550700	-0.322233	142.162648	-0.322233	142.162648	-17.426337	-149.830822
1.800000	-15.969755	-116.776826	-0.361060	135.736493	-0.361060	135.736493	-15.988217	-156.603519
1.850000	-14.830617	-122.169021	-0.402427	129.341672	-0.402427	129.341672	-14.839906	-163.354326
1.900000	-13.909956	-127.654240	-0.444775	122.979605	-0.444775	122.979605	-13.911851	-170.067115
1.950000	-13.165198	-133.197540	-0.486581	116.650074	-0.486581	116.650074	-13.160666	-176.732412
2.000000	-12.569623	-138.781689	-0.526244	110.351189	-0.526244	110.351189	-12.559133	176.656577
2.050000	-12.100077	-144.398693	-0.562430	104.077481	-0.562430	104.077481	-12.083781	170.101008
2.100000	-11.748339	-150.051329	-0.593540	97.823533	-0.593540	97.823533	-11.726073	163.605775
2.150000	-11.499680	-155.743943	-0.618760	91.580070	-0.618760	91.580070	-11.471057	157.168346
2.200000	-11.354128	-161.490549	-0.636819	85.337577	-0.636819	85.337577	-11.318421	150.793431
2.250000	-11.305604	-167.304761	-0.647376	79.084862	-0.647376	79.084862	-11.261765	144.481363
2.300000	-11.357606	-173.208528	-0.649916	72.809593	-0.649916	72.809593	-11.304086	138.239745
2.350000	-11.513991	-179.227263	-0.644495	66.498873	-0.644495	66.498873	-11.448577	132.079829
2.400000	-11.781553	174.609406	-0.631575	60.140422	-0.631575	60.140422	-11.701097	126.020251
2.450000	-12.176491	168.254644	-0.611713	53.719455	-0.611713	53.719455	-12.076230	120.099612
2.500000	-12.711891	161.665374	-0.586350	47.227312	-0.586350	47.227312	-12.584848	114.365512
2.550000	-13.423519	154.743361	-0.556727	40.647660	-0.556727	40.647660	-13.258112	108.930721
2.600000	-14.342973	147.391878	-0.525007	33.977355	-0.525007	33.977355	-14.120470	103.934261
2.650000	-15.537915	139.381624	-0.493337	27.205439	-0.493337	27.205439	-15.223715	99.686611
2.700000	-17.098847	130.354031	-0.464160	20.332720	-0.464160	20.332720	-16.625816	96.679527
2.750000	-19.191630	119.410220	-0.440164	13.356537	-0.440164	13.356537	-18.408771	96.018871
2.800000	-22.087086	104.246200	-0.423902	6.283018	-0.423902	6.283018	-20.613635	99.969425
2.850000	-26.033880	77.099980	-0.417785	-0.878855	-0.417785	-0.878855	-22.929742	113.049774
2.900000	-28.283043	21.782745	-0.423916	-8.116097	-0.423916	-8.116097	-23.798296	137.458395
2.950000	-24.763278	-27.260730	-0.443084	-15.409610	-0.443084	-15.409610	-22.142468	159.823363
3.000000	-20.791875	-50.359943	-0.476686	-22.743130	-0.476686	-22.743130	-19.512514	170.019496
3.050000	-17.884237	-64.684532	-0.523615	-30.094780	-0.523615	-30.094780	-17.163787	172.529681
3.100000	-15.713756	-75.616347	-0.583046	-37.446252	-0.583046	-37.446252	-15.245871	171.004870
3.150000	-14.043976	-85.065699	-0.652469	-44.781161	-0.652469	-44.781161	-13.704390	167.476448
3.200000	-12.735221	-93.723428	-0.728847	-52.088119	-0.728847	-52.088119	-12.465330	162.848470
3.250000	-11.706785	-101.918396	-0.808389	-59.360990	-0.808389	-59.360990	-11.474906	157.596605
3.300000	-10.901904	-109.846627	-0.886903	-66.602846	-0.886903	-66.602846	-10.689085	152.006547
3.350000	-10.295289	-117.623415	-0.959586	-73.822867	-0.959586	-73.822867	-10.087544	146.234029
3.400000	-9.858930	-125.357124	-1.022449	-81.041487	-1.022449	-81.041487	-9.645179	140.399002
3.450000	-9.591935	-133.147838	-1.070626	-88.289012	-1.070626	-88.289012	-9.360340	134.584446
3.500000	-9.489032	-141.107057	-1.101154	-95.604555	-1.101154	-95.604555	-9.225995	128.868013
3.550000	-9.566634	-149.382262	-1.110997	-103.041442	-1.110997	-103.041442	-9.252941	123.345479
3.600000	-9.848599	-158.164377	-1.099393	-110.661175	-1.099393	-110.661175	-9.455103	118.152006
3.650000	-10.388121	-167.764150	-1.066981	-118.544823	-1.066981	-118.544823	-9.864459	113.536537
3.700000	-11.266854	-178.682927	-1.018255	-126.780152	-1.018255	-126.780152	-10.519368	109.949116
3.750000	-12.624821	168.092334	-0.962083	-135.465633	-0.962083	-135.465633	-11.460630	108.276442
3.800000	-14.683829	150.165314	-0.913768	-144.705228	-0.913768	-144.705228	-12.670403	110.290903
3.850000	-17.554767	120.954989	-0.896119	-154.574681	-0.896119	-154.574681	-13.844358	118.688062
3.900000	-19.182519	68.270998	-0.940783	-165.119527	-0.940783	-165.119527	-14.020172	134.144947
3.950000	-15.895294	17.042617	-1.086328	-176.301564	-1.086328	-176.301564	-12.442481	148.613303
4.000000	-11.845352	-12.442460	-1.371039	172.035044	-1.371039	172.035044	-10.015674	154.666535
4.050000	-8.760087	-32.391530	-1.823810	160.161042	-1.823810	160.161042	-7.718480	153.602622
4.100000	-6.507358	-48.391312	-2.454761	148.423303	-2.454761	148.423303	-5.851832	148.560929
4.150000	-4.870322	-62.157434	-3.249604	137.161796	-3.249604	137.161796	-4.422435	141.660678
4.200000	-3.686741	-74.245100	-4.176252	126.636168	-4.176252	126.636168	-3.360411	134.098538
4.250000	-2.831294	-84.921669	-5.194781	116.970620	-5.194781	116.970620	-2.581422	126.525065
4.300000	-2.213053	-94.353928	-6.267588	108.195414	-6.267588	108.195414	-2.013860	119.258429
4.350000	-1.764057	-102.703460	-7.363659	100.264919	-7.363659	100.264919	-1.599904	112.431865
4.400000	-1.435871	-110.118218	-8.458943	93.101611	-8.458943	93.101611	-1.296728	106.079963
4.450000	-1.193212	-116.742918	-9.537888	86.608015	-9.537888	86.608015	-1.072413	100.182112
4.500000	-1.011134	-122.708404	-10.592215	80.685698	-10.592215	80.685698	-0.904109	94.693313
4.550000	-0.872787	-128.119297	-11.616390	75.252012	-11.616390	75.252012	-0.776279	89.567167
4.600000	-0.766344	-133.062852	-12.607512	70.235738	-12.607512	70.235738	-0.677969	84.758858
4.650000	-0.683444	-137.611128	-13.564397	65.576824	-13.564397	65.576824	-0.601422	80.227988
4.700000	-0.618129	-141.823397	-14.486937	61.225170	-14.486937	61.225170	-0.541103	75.939387
4.750000	-0.566103	-145.748410	-15.375678	57.139124	-15.375678	57.139124	-0.493025	71.862979
4.800000	-0.524243	-149.426366	-16.231537	53.283998	-16.231537	53.283998	-0.454289	67.973269
4.850000	-0.490246	-152.890554	-17.055625	49.630752	-17.055625	49.630752	-0.422763	64.248704
4.900000	-0.462402	-156.168681	-17.849149	46.154882	-17.849149	46.154882	-0.396867	60.671064
4.950000	-0.439422	-159.283947	-18.613347	42.835552	-18.613347	42.835552	-0.375412	57.224905
5.000000	-0.420327	-162.255889	-19.349468	39.654939	-19.349468	39.654939	-0.357499	53.897092
5.050000	-0.404546	-165.092959	-20.052902	36.605724	-20.052902	36.605724	-0.342602	50.683445
5.100000	-0.391164	-167.823577	-20.734782	33.660885	-20.734782	33.660885	-0.329890	47.562097
5.150000	-0.379784	-170.458328	-21.395784	30.810709	-21.395784	30.810709	-0.318999	44.525773
5.200000	-0.370192	-173.000497	-22.031586	28.052855	-22.031586	28.052855	-0.309738	41.573648
5.250000	-0.362119	-175.457780	-22.641694	25.380768	-22.641694	25.380768	-0.301864	38.700848
5.300000	-0.355202	-177.845702	-23.233521	22.779880	-23.233521	22.779880	-0.295050	35.894662
5.350000	-0.349534	179.847156	-23.791255	20.263721	-23.791255	20.263721	-0.289389	33.168612
5.400000	-0.344376	177.574736	-24.352787	17.784700	-24.352787	17.784700	-0.284202	30.477941
5.450000	-0.340210	175.372920	-24.879871	15.382323	-24.879871	15.382323	-0.279943	27.860645
5.500000	-0.336655	173.218140	-25.391401	13.032966	-25.391401	13.032966	-0.276263	25.294586
5.550000	-0.333516	171.095675	-25.899015	10.720231	-25.899015	10.720231	-0.272979	22.763952
5.600000	-0.331117	169.034602	-26.368331	8.479639	-26.368331	8.479639	-0.270414	20.303552
5.650000	-0.329043	167.002130	-26.831414	6.274229	-26.831414	6.274229	-0.268173	17.877580
5.700000	-0.327293	164.998259	-27.285759	4.104000	-27.285759	4.104000	-0.266257	15.486037
5.750000	-0.326049	163.041374	-27.706929	1.994564	-27.706929	1.994564	-0.264862	13.154129
5.800000	-0.325009	161.104125	-28.124651	-0.088236	-28.124651	-0.088236	-0.263685	10.848329
5.850000	-0.324252	159.194382	-28.527060	-2.133397	-28.527060	-2.133397	-0.262812	8.579418
5.900000	-0.323810	157.316084	-28.906483	-4.132760	-28.906483	-4.132760	-0.262291	6.355169
5.950000	-0.323523	155.453555	-29.281194	-6.108265	-29.281194	-6.108265	-0.261950	4.154069
6.000000	-0.323485	153.616567	-29.635865	-8.043902	-29.635865	-8.043902	-0.261902	1.991490
6.050000	-0.323645	151.800175	-29.974993	-9.944823	-29.974993	-9.944823	-0.262102	-0.138003
6.100000	-0.323926	149.996436	-30.308366	-11.823930	-30.308366	-11.823930	-0.262455	-2.246807
6.150000	-0.324429	148.215730	-30.618218	-13.660792	-30.618218	-13.660792	-0.263099	-4.316065
6.200000	-0.325057	146.448007	-30.917922	-15.471546	-30.917922	-15.471546	-0.263921	-6.361405
6.250000	-0.325783	144.690381	-31.210955	-17.261992	-31.210955	-17.261992	-0.264879	-8.388141
6.300000	-0.326708	142.952924	-31.477748	-19.007635	-31.477748	-19.007635	-0.266136	-10.374809
6.350000	-0.327711	141.223138	-31.738276	-20.734318	-31.738276	-20.734318	-0.267518	-12.344940
6.400000	-0.328816	139.503217	-31.987376	-22.436625	-31.987376	-22.436625	-0.269062	-14.293810
6.450000	-0.330062	137.796549	-32.215685	-24.102266	-32.215685	-24.102266	-0.270848	-16.211456
6.500000	-0.331375	136.095825	-32.436631	-25.750047	-32.436631	-25.750047	-0.272755	-18.114111
6.550000	-0.332790	134.404015	-32.642150	-27.370064	-32.642150	-27.370064	-0.274848	-19.993597
6.600000	-0.334309	132.720424	-32.830863	-28.961085	-32.830863	-28.961085	-0.277143	-21.849211
6.650000	-0.335886	131.041281	-33.011175	-30.535579	-33.011175	-30.535579	-0.279554	-23.691233
6.700000	-0.337567	129.369538	-33.172425	-32.080335	-33.172425	-32.080335	-0.282181	-25.508838
6.750000	-0.339324	127.702412	-33.319850	-33.603785	-33.319850	-33.603785	-0.284975	-27.308723
6.800000	-0.341133	126.038419	-33.457900	-35.112513	-33.457900	-35.112513	-0.287885	-29.096307
6.850000	-0.343050	124.379846	-33.573296	-36.592159	-33.573296	-36.592159	-0.291046	-30.858846
6.900000	-0.345023	122.723408	-33.677282	-38.058153	-33.677282	-38.058153	-0.294342	-32.608819
6.950000	-0.347052	121.069106	-33.769424	-39.510492	-33.769424	-39.510492	-0.297773	-34.346227
7.000000	-0.349183	119.417468	-33.838317	-40.941366	-33.838317	-40.941366	-0.301461	-36.061525
7.050000	-0.351360	117.766562	-33.896477	-42.364141	-33.896477	-42.364141	-0.305273	-37.767075
7.100000	-0.353605	116.116581	-33.938850	-43.775807	-33.938850	-43.775807	-0.309260	-39.458834
7.150000	-0.355937	114.466738	-33.960291	-45.177742	-33.960291	-45.177742	-0.313481	-41.133885
7.200000	-0.358317	112.816653	-33.970301	-46.576040	-33.970301	-46.576040	-0.317831	-42.800315
7.250000	-0.360779	111.165746	-33.960530	-47.970161	-33.960530	-47.970161	-0.322405	-44.452447
7.300000	-0.363318	109.513233	-33.932215	-49.365191	-33.932215	-49.365191	-0.327190	-46.092506
7.350000	-0.365908	107.859546	-33.892114	-50.761703	-33.892114	-50.761703	-0.332114	-47.725075
7.400000	-0.368601	106.202746	-33.827972	-52.165691	-33.827972	-52.165691	-0.337319	-49.343614
7.450000	-0.371363	104.543259	-33.748112	-53.578633	-33.748112	-53.578633	-0.342715	-50.954012
7.500000	-0.374181	102.881680	-33.656523	-54.998539	-33.656523	-54.998539	-0.348261	-52.558078
7.550000	-0.377132	101.214089	-33.536065	-56.441707	-33.536065	-56.441707	-0.354161	-54.149281
7.600000	-0.380147	99.543315	-33.403478	-57.898177	-33.403478	-57.898177	-0.360228	-55.735592
7.650000	-0.383244	97.868448	-33.255468	-59.371748	-33.255468	-59.371748	-0.366509	-57.315612
7.700000	-0.386480	96.186066	-33.081111	-60.877865	-33.081111	-60.877865	-0.373142	-58.887394
7.750000	-0.389792	94.499494	-32.895109	-62.402235	-32.895109	-62.402235	-0.379964	-60.455646
7.800000	-0.393227	92.806066	-32.689260	-63.956535	-32.689260	-63.956535	-0.387084	-62.018721
7.850000	-0.396810	91.104045	-32.460177	-65.547857	-32.460177	-65.547857	-0.394557	-63.577674
7.900000	-0.400488	89.396708	-32.220273	-67.161771	-32.220273	-67.161771	-0.402246	-65.134637
7.950000	-0.404349	87.678749	-31.954699	-68.820114	-31.954699	-68.820114	-0.410352	-66.688937
8.000000	-0.408375	85.951498	-31.669881	-70.515671	-31.669881	-70.515671	-0.418812	-68.242722
8.050000	-0.412518	84.217616	-31.375375	-72.237561	-31.375375	-72.237561	-0.427528	-69.796318
8.100000	-0.416948	82.467900	-31.047025	-74.019510	-31.047025	-74.019510	-0.436833	-71.351721
8.150000	-0.421558	80.708578	-30.704773	-75.835663	-30.704773	-75.835663	-0.446497	-72.909654
8.200000	-0.426350	78.939649	-30.350668	-77.686019	-30.350668	-77.686019	-0.456519	-74.470117
8.250000	-0.431546	77.150162	-29.958106	-79.604628	-29.958106	-79.604628	-0.467300	-76.038712
8.300000	-0.436967	75.349871	-29.555492	-81.556865	-29.555492	-81.556865	-0.478491	-77.612694
8.350000	-0.442718	73.533855	-29.133064	-83.557566	-29.133064	-83.557566	-0.490273	-79.194752
8.400000	-0.448996	71.694217	-28.674351	-85.625703	-28.674351	-85.625703	-0.502956	-80.791422
8.450000	-0.455604	69.840651	-28.206644	-87.731817	-28.206644	-87.731817	-0.516189	-82.397500
8.500000	-0.462827	67.961658	-27.706665	-89.905175	-27.706665	-89.905175	-0.530426	-84.021683
8.550000	-0.470776	66.055178	-27.174145	-92.146029	-27.174145	-92.146029	-0.545795	-85.667704
8.600000	-0.479233	64.130233	-26.634137	-94.431242	-26.634137	-94.431242	-0.561949	-87.328825
8.650000	-0.488907	62.163485	-26.042074	-96.812220	-26.042074	-96.812220	-0.579916	-89.026172
8.700000	-0.499643	60.164119	-25.424191	-99.263380	-25.424191	-99.263380	-0.599406	-90.753812
8.750000	-0.511212	58.139384	-24.801350	-101.769126	-24.801350	-101.769126	-0.620098	-92.505013
8.800000	-0.525285	56.046031	-24.099701	-104.414900	-24.099701	-104.414900	-0.644229	-94.323468
8.850000	-0.541251	53.907197	-23.374103	-107.149615	-23.374103	-107.149615	-0.670887	-96.188411
8.900000	-0.559282	51.720559	-22.630071	-109.977134	-22.630071	-109.977134	-0.700285	-98.102591
8.950000	-0.581735	49.440964	-21.808660	-112.980694	-21.808660	-112.980694	-0.735383	-100.114927
9.000000	-0.609116	47.072462	-20.936136	-116.148962	-20.936136	-116.148962	-0.776669	-102.223586
9.050000	-0.640800	44.630969	-20.051930	-119.451938	-20.051930	-119.451938	-0.823354	-104.411824
9.100000	-0.682459	42.038493	-19.075334	-123.031562	-19.075334	-123.031562	-0.882246	-106.767074
9.150000	-0.735798	39.293887	-18.037772	-126.890040	-18.037772	-126.890040	-0.955237	-109.292786
9.200000	-0.808791	36.328883	-16.902395	-131.156386	-16.902395	-131.156386	-1.051606	-112.068047
9.250000	-0.907002	33.125884	-15.697506	-135.871969	-15.697506	-135.871969	-1.177726	-115.115480
9.300000	-1.048965	29.582662	-14.384764	-141.254030	-14.384764	-141.254030	-1.354968	-118.556368
9.350000	-1.255790	25.638574	-12.979882	-147.469519	-12.979882	-147.469519	-1.607772	-122.467360
9.400000	-1.579863	21.163297	-11.456275	-154.928089	-11.456275	-154.928089	-1.996927	-127.016784
9.450000	-2.112873	16.120926	-9.831488	-164.144161	-9.831488	-164.144161	-2.630752	-132.289341
9.500000	-3.011092	10.813452	-8.177744	-175.708700	-8.177744	-175.708700	-3.702370	-138.026233
9.550000	-4.565118	6.818141	-6.630771	169.586052	-6.630771	169.586052	-5.607506	-142.542187
9.600000	-6.926729	9.579607	-5.463369	151.717183	-5.463369	151.717183	-8.728234	-138.695572
9.650000	-8.583663	27.494446	-4.965965	132.131226	-4.965965	132.131226	-10.874592	-111.653863
9.700000	-7.238337	45.044173	-5.178074	113.580484	-5.178074	113.580484	-8.413318	-89.372579
9.750000	-5.263110	48.948434	-5.840976	97.921164	-5.840976	97.921164	-5.853282	-86.974848
9.800000	-3.923219	46.659146	-6.666341	85.401704	-6.666341	85.401704	-4.330031	-90.647757
9.850000	-3.100379	42.814486	-7.475778	75.353969	-7.475778	75.353969	-3.450279	-95.315727
9.900000	-2.592535	38.783779	-8.191860	67.088515	-8.191860	67.088515	-2.931573	-99.819554
9.950000	-2.268586	34.916904	-8.795611	60.021470	-8.795611	60.021470	-2.616647	-103.964372
10.000000	-2.060938	31.272786	-9.282916	53.789509	-9.282916	53.789509	-2.429124	-107.773892
