! freq	dB(S11)	phase(S11)	dB(S12)	phase(S12)	
!     	dB(S21)	phase(S21)	dB(S22)	phase(S22)	
!S-par simulation data
#  GHz  S  DB  R 50
0.000000	-90.488419	0.000000	-0.000260	0.000000	-0.000260	0.000000	-90.488419	0.000000
0.050000	-45.528243	-90.897748	-0.002077	-1.510915	-0.002077	-1.510915	-45.514812	-91.466871
0.100000	-39.514046	-92.282856	-0.005348	-3.006280	-0.005348	-3.006280	-39.511578	-93.441626
0.150000	-36.002931	-93.557394	-0.008350	-4.493074	-0.008350	-4.493074	-36.013599	-95.336051
0.200000	-33.519972	-94.803694	-0.011101	-5.977257	-0.011101	-5.977257	-33.541577	-97.226369
0.250000	-31.603150	-96.044469	-0.013860	-7.460676	-0.013860	-7.460676	-31.630150	-99.117448
0.300000	-30.046051	-97.296114	-0.016769	-8.943622	-0.016769	-8.943622	-30.071964	-101.003001
0.350000	-28.736954	-98.572219	-0.019887	-10.426018	-0.019887	-10.426018	-28.757087	-102.877217
0.400000	-27.606576	-99.872098	-0.023223	-11.907768	-0.023223	-11.907768	-27.620195	-104.737758
0.450000	-26.610259	-101.178179	-0.026782	-13.388768	-0.026782	-13.388768	-26.619732	-106.584183
0.500000	-25.719299	-102.468190	-0.030554	-14.868956	-0.030554	-14.868956	-25.727406	-108.418007
0.550000	-24.914590	-103.733808	-0.034516	-16.348354	-0.034516	-16.348354	-24.922737	-110.242051
0.600000	-24.182558	-104.973973	-0.038665	-17.826906	-0.038665	-17.826906	-24.191076	-112.057932
0.650000	-23.512779	-106.192377	-0.043001	-19.304552	-0.043001	-19.304552	-23.521395	-113.867455
0.700000	-22.896163	-107.395424	-0.047505	-20.781336	-0.047505	-20.781336	-22.904531	-115.672729
0.750000	-22.325615	-108.586863	-0.052172	-22.257243	-0.052172	-22.257243	-22.333486	-117.475039
0.800000	-21.795632	-109.769265	-0.057003	-23.732211	-0.057003	-23.732211	-21.802885	-119.275395
0.850000	-21.301355	-110.945117	-0.061989	-25.206238	-0.061989	-25.206238	-21.307985	-121.074783
0.900000	-20.838796	-112.115972	-0.067125	-26.679320	-0.067125	-26.679320	-20.844861	-122.873919
0.950000	-20.404731	-113.282771	-0.072403	-28.151433	-0.072403	-28.151433	-20.410309	-124.673372
1.000000	-19.996423	-114.446088	-0.077820	-29.622559	-0.077820	-29.622559	-20.001587	-126.473609
1.050000	-19.611547	-115.606195	-0.083368	-31.092684	-0.083368	-31.092684	-19.616345	-128.275016
1.100000	-19.248108	-116.763143	-0.089041	-32.561792	-0.089041	-32.561792	-19.252559	-130.077922
1.150000	-18.904319	-117.916864	-0.094831	-34.029885	-0.094831	-34.029885	-18.908413	-131.882588
1.200000	-18.578814	-119.067055	-0.100732	-35.496925	-0.100732	-35.496925	-18.582513	-133.689323
1.250000	-18.270175	-120.213495	-0.106736	-36.962923	-0.106736	-36.962923	-18.273420	-135.498331
1.300000	-17.977279	-121.355828	-0.112835	-38.427868	-0.112835	-38.427868	-17.979995	-137.309859
1.350000	-17.699015	-122.493772	-0.119019	-39.891771	-0.119019	-39.891771	-17.701116	-139.124093
1.400000	-17.434440	-123.627004	-0.125279	-41.354639	-0.125279	-41.354639	-17.435835	-140.941240
1.450000	-17.182703	-124.755210	-0.131607	-42.816480	-0.131607	-42.816480	-17.183301	-142.761506
1.500000	-16.943038	-125.878090	-0.137993	-44.277307	-0.137993	-44.277307	-16.942746	-144.585098
1.550000	-16.714746	-126.995356	-0.144429	-45.737138	-0.144429	-45.737138	-16.713476	-146.412230
1.600000	-16.497234	-128.106692	-0.150904	-47.195984	-0.150904	-47.195984	-16.494903	-148.243148
1.650000	-16.289896	-129.211873	-0.157410	-48.653877	-0.157410	-48.653877	-16.286424	-150.078060
1.700000	-16.092187	-130.310679	-0.163938	-50.110847	-0.163938	-50.110847	-16.087505	-151.917185
1.750000	-15.903622	-131.402886	-0.170477	-51.566926	-0.170477	-51.566926	-15.897665	-153.760761
1.800000	-15.723791	-132.488227	-0.177020	-53.022143	-0.177020	-53.022143	-15.716501	-155.609074
1.850000	-15.552180	-133.566655	-0.183558	-54.476554	-0.183558	-54.476554	-15.543506	-157.462270
1.900000	-15.388522	-134.637806	-0.190081	-55.930181	-0.190081	-55.930181	-15.378417	-159.320735
1.950000	-15.232461	-135.701492	-0.196581	-57.383073	-0.196581	-57.383073	-15.220885	-161.184750
2.000000	-15.083620	-136.757615	-0.203051	-58.835284	-0.203051	-58.835284	-15.070538	-163.054538
2.050000	-14.941693	-137.806004	-0.209483	-60.286867	-0.209483	-60.286867	-14.927074	-164.930387
2.100000	-14.806397	-138.846491	-0.215868	-61.737877	-0.215868	-61.737877	-14.790213	-166.812596
2.150000	-14.677465	-139.878912	-0.222201	-63.188368	-0.222201	-63.188368	-14.659691	-168.701471
2.200000	-14.554651	-140.903103	-0.228475	-64.638401	-0.228475	-64.638401	-14.535264	-170.597325
2.250000	-14.437722	-141.918900	-0.234682	-66.088037	-0.234682	-66.088037	-14.416699	-172.500481
2.300000	-14.326459	-142.926140	-0.240819	-67.537339	-0.240819	-67.537339	-14.303778	-174.411270
2.350000	-14.220657	-143.924657	-0.246878	-68.986373	-0.246878	-68.986373	-14.196294	-176.330031
2.400000	-14.120122	-144.914284	-0.252854	-70.435205	-0.252854	-70.435205	-14.094054	-178.257110
2.450000	-14.024672	-145.894851	-0.258745	-71.883903	-0.258745	-71.883903	-13.996872	179.807139
2.500000	-13.934133	-146.866182	-0.264544	-73.332539	-0.264544	-73.332539	-13.904570	177.862356
2.550000	-13.848424	-147.827890	-0.270247	-74.781184	-0.270247	-74.781184	-13.817063	175.907960
2.600000	-13.767303	-148.779992	-0.275852	-76.229912	-0.275852	-76.229912	-13.734105	173.943774
2.650000	-13.690620	-149.722298	-0.281357	-77.678797	-0.281357	-77.678797	-13.655542	171.969416
2.700000	-13.618235	-150.654611	-0.286760	-79.127911	-0.286760	-79.127911	-13.581226	169.984502
2.750000	-13.550010	-151.576731	-0.292058	-80.577329	-0.292058	-80.577329	-13.511012	167.988642
2.800000	-13.485815	-152.488448	-0.297252	-82.027124	-0.297252	-82.027124	-13.444762	165.981439
2.850000	-13.425523	-153.389545	-0.302339	-83.477372	-0.302339	-83.477372	-13.382342	163.962496
2.900000	-13.369011	-154.279801	-0.307320	-84.928146	-0.307320	-84.928146	-13.323620	161.931412
2.950000	-13.316162	-155.158983	-0.312196	-86.379521	-0.312196	-86.379521	-13.268468	159.887781
3.000000	-13.266860	-156.026853	-0.316966	-87.831569	-0.316966	-87.831569	-13.216760	157.831199
3.050000	-13.220991	-156.883167	-0.321633	-89.284364	-0.321633	-89.284364	-13.168372	155.761260
3.100000	-13.178446	-157.727672	-0.326197	-90.737977	-0.326197	-90.737977	-13.123183	153.677557
3.150000	-13.139147	-158.559973	-0.330661	-92.192491	-0.330661	-92.192491	-13.081102	151.579528
3.200000	-13.102983	-159.379794	-0.335026	-93.647978	-0.335026	-93.647978	-13.042006	149.466758
3.250000	-13.069815	-160.186995	-0.339298	-95.104496	-0.339298	-95.104496	-13.005743	147.339003
3.300000	-13.039535	-160.981297	-0.343479	-96.562113	-0.343479	-96.562113	-12.972194	145.195870
3.350000	-13.012036	-161.762416	-0.347574	-98.020895	-0.347574	-98.020895	-12.941240	143.036975
3.400000	-12.987211	-162.530067	-0.351587	-99.480905	-0.351587	-99.480905	-12.912760	140.861940
3.450000	-12.964951	-163.283960	-0.355522	-100.942206	-0.355522	-100.942206	-12.886632	138.670400
3.500000	-12.945147	-164.023804	-0.359386	-102.404858	-0.359386	-102.404858	-12.862734	136.461999
3.550000	-12.927687	-164.749310	-0.363182	-103.868918	-0.363182	-103.868918	-12.840942	134.236397
3.600000	-12.912458	-165.460189	-0.366919	-105.334443	-0.366919	-105.334443	-12.821131	131.993271
3.650000	-12.899345	-166.156157	-0.370600	-106.801485	-0.370600	-106.801485	-12.803173	129.732314
3.700000	-12.888230	-166.836935	-0.374234	-108.270096	-0.374234	-108.270096	-12.786938	127.453244
3.750000	-12.878990	-167.502252	-0.377826	-109.740324	-0.377826	-109.740324	-12.772295	125.155799
3.800000	-12.871538	-168.151502	-0.381384	-111.212251	-0.381384	-111.212251	-12.759139	122.839335
3.850000	-12.865703	-168.784775	-0.384915	-112.685886	-0.384915	-112.685886	-12.747297	120.504050
3.900000	-12.861356	-169.401843	-0.388428	-114.161267	-0.388428	-114.161267	-12.736632	118.149772
3.950000	-12.858360	-170.002498	-0.391929	-115.638431	-0.391929	-115.638431	-12.727001	115.776367
4.000000	-12.856577	-170.586554	-0.395427	-117.117413	-0.395427	-117.117413	-12.718262	113.383738
4.050000	-12.855863	-171.153853	-0.398930	-118.598242	-0.398930	-118.598242	-12.710267	110.971830
4.100000	-12.856071	-171.704269	-0.402446	-120.080946	-0.402446	-120.080946	-12.702868	108.540634
4.150000	-12.857051	-172.237709	-0.405984	-121.565550	-0.405984	-121.565550	-12.695916	106.090187
4.200000	-12.858648	-172.754119	-0.409552	-123.052074	-0.409552	-123.052074	-12.689259	103.620578
4.250000	-12.860703	-173.253488	-0.413159	-124.540536	-0.413159	-124.540536	-12.682743	101.131952
4.300000	-12.863055	-173.735852	-0.416813	-126.030950	-0.416813	-126.030950	-12.676214	98.624507
4.350000	-12.865541	-174.201299	-0.420522	-127.523327	-0.420522	-127.523327	-12.669518	96.098505
4.400000	-12.867991	-174.649791	-0.424298	-129.017696	-0.424298	-129.017696	-12.662496	93.554074
4.450000	-12.870230	-175.081538	-0.428147	-130.514061	-0.428147	-130.514061	-12.654989	90.991616
4.500000	-12.872089	-175.496992	-0.432078	-132.012402	-0.432078	-132.012402	-12.646848	88.411786
4.550000	-12.873396	-175.896486	-0.436100	-133.512716	-0.436100	-133.512716	-12.637922	85.815111
4.600000	-12.873982	-176.280426	-0.440220	-135.014996	-0.440220	-135.014996	-12.628065	83.202183
4.650000	-12.873676	-176.649286	-0.444447	-136.519234	-0.444447	-136.519234	-12.617133	80.573665
4.700000	-12.872311	-177.003616	-0.448790	-138.025416	-0.448790	-138.025416	-12.604987	77.930288
4.750000	-12.869722	-177.344041	-0.453255	-139.533526	-0.453255	-139.533526	-12.591492	75.272851
4.800000	-12.865749	-177.671258	-0.457851	-141.043546	-0.457851	-141.043546	-12.576522	72.602218
4.850000	-12.860236	-177.986043	-0.462585	-142.555452	-0.462585	-142.555452	-12.559955	69.919319
4.900000	-12.853033	-178.289243	-0.467464	-144.069221	-0.467464	-144.069221	-12.541679	67.225144
4.950000	-12.843999	-178.581779	-0.472495	-145.584823	-0.472495	-145.584823	-12.521589	64.520739
5.000000	-12.832999	-178.864640	-0.477685	-147.102228	-0.477685	-147.102228	-12.499591	61.807207
5.050000	-12.819861	-179.138719	-0.483044	-148.621439	-0.483044	-148.621439	-12.475554	59.085549
5.100000	-12.804515	-179.405346	-0.488574	-150.142380	-0.488574	-150.142380	-12.449447	56.357159
5.150000	-12.786859	-179.665696	-0.494281	-151.665012	-0.494281	-151.665012	-12.421209	53.623268
5.200000	-12.766804	-179.920990	-0.500170	-153.189294	-0.500170	-153.189294	-12.390791	50.885136
5.250000	-12.744275	179.827508	-0.506245	-154.715180	-0.506245	-154.715180	-12.358155	48.144045
5.300000	-12.719209	179.578504	-0.512513	-156.242626	-0.512513	-156.242626	-12.323277	45.401291
5.350000	-12.691559	179.330676	-0.518975	-157.771583	-0.518975	-157.771583	-12.286144	42.658179
5.400000	-12.661292	179.082689	-0.525636	-159.302001	-0.525636	-159.302001	-12.246759	39.916013
5.450000	-12.628390	178.833198	-0.532500	-160.833828	-0.532500	-160.833828	-12.205133	37.176090
5.500000	-12.592849	178.580864	-0.539567	-162.367010	-0.539567	-162.367010	-12.161293	34.439691
5.550000	-12.554680	178.324356	-0.546842	-163.901493	-0.546842	-163.901493	-12.115277	31.708073
5.600000	-12.513910	178.062364	-0.554324	-165.437221	-0.554324	-165.437221	-12.067133	28.982466
5.650000	-12.470549	177.793521	-0.562019	-166.974148	-0.562019	-166.974148	-12.016898	26.264153
5.700000	-12.424650	177.516541	-0.569925	-168.512215	-0.569925	-168.512215	-11.964644	23.554322
5.750000	-12.376311	177.230300	-0.578042	-170.051351	-0.578042	-170.051351	-11.910476	20.853993
5.800000	-12.325611	176.933656	-0.586369	-171.591495	-0.586369	-171.591495	-11.854486	18.164212
5.850000	-12.272637	176.625519	-0.594904	-173.132587	-0.594904	-173.132587	-11.796769	15.485967
5.900000	-12.217489	176.304865	-0.603647	-174.674569	-0.603647	-174.674569	-11.737432	12.820187
5.950000	-12.160275	175.970737	-0.612595	-176.217380	-0.612595	-176.217380	-11.676583	10.167735
6.000000	-12.101110	175.622245	-0.621746	-177.760961	-0.621746	-177.760961	-11.614340	7.529410
6.050000	-12.040115	175.258575	-0.631096	-179.305251	-0.631096	-179.305251	-11.550822	4.905945
6.100000	-11.977418	174.878985	-0.640643	179.149807	-0.640643	179.149807	-11.486152	2.298003
6.150000	-11.913149	174.482807	-0.650382	177.604272	-0.650382	177.604272	-11.420457	-0.293820
6.200000	-11.847443	174.069450	-0.660309	176.058201	-0.660309	176.058201	-11.353862	-2.868995
6.250000	-11.780437	173.638395	-0.670418	174.511650	-0.670418	174.511650	-11.286497	-5.427061
6.300000	-11.712235	173.188793	-0.680708	172.964666	-0.680708	172.964666	-11.218468	-7.967233
6.350000	-11.643013	172.720658	-0.691169	171.417313	-0.691169	171.417313	-11.149929	-10.489555
6.400000	-11.572909	172.233687	-0.701794	169.869641	-0.701794	169.869641	-11.081007	-12.993760
6.450000	-11.502059	171.727642	-0.712576	168.321702	-0.712576	168.321702	-11.011827	-15.479641
6.500000	-11.430597	171.202348	-0.723507	166.773543	-0.723507	166.773543	-10.942511	-17.947048
6.550000	-11.358653	170.657685	-0.734581	165.225210	-0.734581	165.225210	-10.873177	-20.395884
6.600000	-11.286357	170.093592	-0.745789	163.676747	-0.745789	163.676747	-10.803942	-22.826102
6.650000	-11.213833	169.510055	-0.757122	162.128194	-0.757122	162.128194	-10.734919	-25.237706
6.700000	-11.141200	168.907108	-0.768571	160.579592	-0.768571	160.579592	-10.666215	-27.630742
6.750000	-11.068575	168.284830	-0.780128	159.030977	-0.780128	159.030977	-10.597935	-30.005302
6.800000	-10.996069	167.643339	-0.791781	157.482380	-0.791781	157.482380	-10.530181	-32.361514
6.850000	-10.923789	166.982788	-0.803522	155.933835	-0.803522	155.933835	-10.463046	-34.699544
6.900000	-10.851835	166.303160	-0.815340	154.385368	-0.815340	154.385368	-10.396628	-37.019399
6.950000	-10.780308	165.604680	-0.827225	152.837006	-0.827225	152.837006	-10.331015	-39.321318
7.000000	-10.709303	164.887796	-0.839164	151.288769	-0.839164	151.288769	-10.266287	-41.605759
7.050000	-10.638905	164.152773	-0.851149	149.740675	-0.851149	149.740675	-10.202524	-43.873008
7.100000	-10.569199	163.399898	-0.863166	148.192738	-0.863166	148.192738	-10.139798	-46.123377
7.150000	-10.500260	162.629474	-0.875204	146.644970	-0.875204	146.644970	-10.078178	-48.357197
7.200000	-10.432162	161.841820	-0.887252	145.097378	-0.887252	145.097378	-10.017728	-50.574823
7.250000	-10.364971	161.037266	-0.899299	143.549966	-0.899299	143.549966	-9.958511	-52.776622
7.300000	-10.298753	160.216156	-0.911332	142.002736	-0.911332	142.002736	-9.900582	-54.962982
7.350000	-10.233566	159.378839	-0.923339	140.455683	-0.923339	140.455683	-9.843994	-57.134304
7.400000	-10.169465	158.525676	-0.935309	138.908802	-0.935309	138.908802	-9.788796	-59.291001
7.450000	-10.106501	157.657030	-0.947230	137.362082	-0.947230	137.362082	-9.735033	-61.433500
7.500000	-10.044721	156.773272	-0.959089	135.815507	-0.959089	135.815507	-9.682748	-63.562237
7.550000	-9.984188	155.874463	-0.970873	134.269064	-0.970873	134.269064	-9.632005	-65.677380
7.600000	-9.924925	154.961308	-0.982570	132.722726	-0.982570	132.722726	-9.582816	-67.779684
7.650000	-9.866969	154.034184	-0.994170	131.176468	-0.994170	131.176468	-9.535212	-69.869615
7.700000	-9.810353	153.093471	-1.005660	129.630259	-1.005660	129.630259	-9.489223	-71.947643
7.750000	-9.755107	152.139548	-1.017029	128.084068	-1.017029	128.084068	-9.444875	-74.014248
7.800000	-9.701258	151.172793	-1.028265	126.537855	-1.028265	126.537855	-9.402193	-76.069912
7.850000	-9.648830	150.193586	-1.039357	124.991581	-1.039357	124.991581	-9.361197	-78.115129
7.900000	-9.597846	149.202304	-1.050293	123.445200	-1.050293	123.445200	-9.321907	-80.150392
7.950000	-9.548325	148.199323	-1.061063	121.898665	-1.061063	121.898665	-9.284341	-82.176205
8.000000	-9.500283	147.185018	-1.071655	120.351923	-1.071655	120.351923	-9.248513	-84.193075
8.050000	-9.453735	146.159764	-1.082059	118.804918	-1.082059	118.804918	-9.214436	-86.201512
8.100000	-9.408693	145.123931	-1.092265	117.257590	-1.092265	117.257590	-9.182122	-88.202034
8.150000	-9.365183	144.077784	-1.102260	115.709873	-1.102260	115.709873	-9.151599	-90.195089
8.200000	-9.323213	143.021701	-1.112035	114.161696	-1.112035	114.161696	-9.122876	-92.181221
8.250000	-9.282774	141.956162	-1.121581	112.612994	-1.121581	112.612994	-9.095940	-94.161045
8.300000	-9.243873	140.881529	-1.130891	111.063693	-1.130891	111.063693	-9.070797	-96.135096
8.350000	-9.206550	139.797923	-1.139948	109.513695	-1.139948	109.513695	-9.047501	-98.103785
8.400000	-9.170665	138.706555	-1.148771	107.962997	-1.148771	107.962997	-9.025876	-100.068127
8.450000	-9.136434	137.606518	-1.157311	106.411391	-1.157311	106.411391	-9.006194	-102.028008
8.500000	-9.103666	136.499234	-1.165597	104.858907	-1.165597	104.858907	-8.988218	-103.984519
8.550000	-9.072464	135.384478	-1.173600	103.305381	-1.173600	103.305381	-8.972084	-105.937970
8.600000	-9.042797	134.262740	-1.181320	101.750741	-1.181320	101.750741	-8.957755	-107.888989
8.650000	-9.014603	133.134633	-1.188761	100.194936	-1.188761	100.194936	-8.945159	-109.838239
8.700000	-8.988010	131.999889	-1.195891	98.637745	-1.195891	98.637745	-8.934462	-111.786166
8.750000	-8.962790	130.859786	-1.202751	97.079279	-1.202751	97.079279	-8.925387	-113.733500
8.800000	-8.939234	129.713466	-1.209271	95.519121	-1.209271	95.519121	-8.918301	-115.680797
8.850000	-8.917028	128.562428	-1.215514	93.957492	-1.215514	93.957492	-8.912822	-117.628637
8.900000	-8.896376	127.406228	-1.221428	92.394029	-1.221428	92.394029	-8.909213	-119.577768
8.950000	-8.877129	126.245664	-1.227041	90.828790	-1.227041	90.828790	-8.907295	-121.528684
9.000000	-8.859324	125.080903	-1.232339	89.261590	-1.232339	89.261590	-8.907124	-123.482108
9.050000	-8.842971	123.912205	-1.237315	87.692275	-1.237315	87.692275	-8.908722	-125.438753
9.100000	-8.827946	122.740184	-1.241993	86.120893	-1.241993	86.120893	-8.911942	-127.399008
9.150000	-8.814415	121.564727	-1.246331	84.547019	-1.246331	84.547019	-8.916999	-129.364123
9.200000	-8.802121	120.386685	-1.250385	82.970946	-1.250385	82.970946	-8.923584	-131.333945
9.250000	-8.791301	119.205873	-1.254095	81.392068	-1.254095	81.392068	-8.932001	-133.310255
9.300000	-8.781704	118.023032	-1.257518	79.810713	-1.257518	79.810713	-8.941942	-135.292699
9.350000	-8.773457	116.838244	-1.260622	78.226442	-1.260622	78.226442	-8.953575	-137.282800
9.400000	-8.766462	115.651930	-1.263430	76.639295	-1.263430	76.639295	-8.966784	-139.280855
9.450000	-8.760694	114.464402	-1.265945	75.049146	-1.265945	75.049146	-8.981543	-141.287612
9.500000	-8.756198	113.275915	-1.268157	73.455690	-1.268157	73.455690	-8.997913	-143.304375
9.550000	-8.752810	112.086861	-1.270106	71.859175	-1.270106	71.859175	-9.015691	-145.330753
9.600000	-8.750706	110.897476	-1.271751	70.258887	-1.271751	70.258887	-9.035095	-147.369432
9.650000	-8.749634	109.708096	-1.273153	68.655373	-1.273153	68.655373	-9.055816	-149.418994
9.700000	-8.749763	108.519047	-1.274275	67.047877	-1.274275	67.047877	-9.078052	-151.482410
9.750000	-8.750914	107.330568	-1.275164	65.436779	-1.275164	65.436779	-9.101581	-153.558738
9.800000	-8.753141	106.143005	-1.275811	63.821656	-1.275811	63.821656	-9.126454	-155.649900
9.850000	-8.756393	104.956627	-1.276233	62.202461	-1.276233	62.202461	-9.152598	-157.756463
9.900000	-8.760601	103.771665	-1.276452	60.579234	-1.276452	60.579234	-9.179912	-159.878680
9.950000	-8.765828	102.588554	-1.276463	58.951443	-1.276463	58.951443	-9.208442	-162.019038
10.000000	-8.771898	101.407273	-1.276310	57.319646	-1.276310	57.319646	-9.237967	-164.175693
