! freq	dB(S11)	phase(S11)	dB(S12)	phase(S12)	
!     	dB(S21)	phase(S21)	dB(S22)	phase(S22)	
!S-par simulation data
#  GHz  S  DB  R 50
0.000000	-79.034254	0.000000	-0.000971	0.000000	-0.000971	0.000000	-79.034254	0.000000
0.050000	-52.149046	-83.473210	-0.005533	-3.263122	-0.005533	-3.263122	-52.148983	-83.472755
0.100000	-46.632165	-91.189468	-0.012055	-6.485088	-0.012055	-6.485088	-46.632098	-91.188579
0.150000	-43.275728	-96.506466	-0.016985	-9.692078	-0.016985	-9.692078	-43.275656	-96.505147
0.200000	-40.888551	-100.933739	-0.021099	-12.896109	-0.021099	-12.896109	-40.888474	-100.931997
0.250000	-39.055125	-104.939937	-0.024949	-16.099243	-0.024949	-16.099243	-39.055043	-104.937772
0.300000	-37.582007	-108.720440	-0.028740	-19.301722	-0.028740	-19.301722	-37.581922	-108.717849
0.350000	-36.362310	-112.372067	-0.032517	-22.503716	-0.032517	-22.503716	-36.362220	-112.369041
0.400000	-35.333139	-115.940258	-0.036275	-25.705477	-0.036275	-25.705477	-35.333046	-115.936786
0.450000	-34.455767	-119.450185	-0.040000	-28.907349	-0.040000	-28.907349	-34.455672	-119.446250
0.500000	-33.700090	-122.921385	-0.043682	-32.109676	-0.043682	-32.109676	-33.699993	-122.916970
0.550000	-33.046425	-126.364025	-0.047317	-35.312769	-0.047317	-35.312769	-33.046326	-126.359107
0.600000	-32.482452	-129.784279	-0.050903	-38.516975	-0.050903	-38.516975	-32.482352	-129.778831
0.650000	-31.995624	-133.188134	-0.054443	-41.722522	-0.054443	-41.722522	-31.995522	-133.182128
0.700000	-31.577110	-136.579507	-0.057940	-44.929624	-0.057940	-44.929624	-31.577007	-136.572910
0.750000	-31.221741	-139.961171	-0.061399	-48.138552	-0.061399	-48.138552	-31.221637	-139.953945
0.800000	-30.924173	-143.335877	-0.064822	-51.349514	-0.064822	-51.349514	-30.924067	-143.327978
0.850000	-30.680952	-146.706030	-0.068214	-54.562761	-0.068214	-54.562761	-30.680846	-146.697410
0.900000	-30.484059	-150.074013	-0.071581	-57.778234	-0.071581	-57.778234	-30.483952	-150.064619
0.950000	-30.337734	-153.441782	-0.074922	-60.996540	-0.074922	-60.996540	-30.337626	-153.431549
1.000000	-30.233817	-156.811344	-0.078245	-64.217523	-0.078245	-64.217523	-30.233709	-156.800205
1.050000	-30.173695	-160.184997	-0.081552	-67.441617	-0.081552	-67.441617	-30.173588	-160.172872
1.100000	-30.154919	-163.564773	-0.084846	-70.668979	-0.084846	-70.668979	-30.154813	-163.551572
1.150000	-30.174515	-166.952551	-0.088132	-73.899700	-0.088132	-73.899700	-30.174411	-166.938176
1.200000	-30.234936	-170.351493	-0.091413	-77.134354	-0.091413	-77.134354	-30.234834	-170.335824
1.250000	-30.329219	-173.762045	-0.094694	-80.372577	-0.094694	-80.372577	-30.329120	-173.744965
1.300000	-30.463557	-177.189647	-0.097979	-83.615474	-0.097979	-83.615474	-30.463464	-177.170995
1.350000	-30.629472	179.366671	-0.101272	-86.862379	-0.101272	-86.862379	-30.629386	179.387042
1.400000	-30.830145	175.901557	-0.104578	-90.114227	-0.104578	-90.114227	-30.830069	175.923839
1.450000	-31.061043	172.414576	-0.107900	-93.370804	-0.107900	-93.370804	-31.060981	172.438963
1.500000	-31.320727	168.902430	-0.111245	-96.632544	-0.111245	-96.632544	-31.320683	168.929142
1.550000	-31.606604	165.362425	-0.114616	-99.899794	-0.114616	-99.899794	-31.606583	165.391708
1.600000	-31.913787	161.794965	-0.118016	-103.172374	-0.118016	-103.172374	-31.913796	161.827060
1.650000	-32.238445	158.194974	-0.121457	-106.451313	-0.121457	-106.451313	-32.238491	158.230169
1.700000	-32.573863	154.567144	-0.124938	-109.735935	-0.124938	-109.735935	-32.573954	154.605685
1.750000	-32.912212	150.909997	-0.128473	-113.027128	-0.128473	-113.027128	-32.912360	150.952145
1.800000	-33.243823	147.228294	-0.132074	-116.324997	-0.132074	-116.324997	-33.244038	147.274266
1.850000	-33.556930	143.528877	-0.135755	-119.629862	-0.135755	-119.629862	-33.557223	143.578826
1.900000	-33.837043	139.822282	-0.139534	-122.942174	-0.139534	-122.942174	-33.837424	139.876261
1.950000	-34.067898	136.123577	-0.143431	-126.262382	-0.143431	-126.262382	-34.068373	136.181492
2.000000	-34.232774	132.451253	-0.147460	-129.590910	-0.147460	-129.590910	-34.233342	132.512827
2.050000	-34.314149	128.826150	-0.151629	-132.928320	-0.151629	-132.928320	-34.314804	128.890900
2.100000	-34.295565	125.269189	-0.155942	-136.275215	-0.155942	-136.275215	-34.296291	125.336412
2.150000	-34.163293	121.798127	-0.160401	-139.632221	-0.160401	-139.632221	-34.164065	121.866933
2.200000	-33.907969	118.424159	-0.165002	-142.999976	-0.165002	-142.999976	-33.908756	118.493521
2.250000	-33.525831	115.149363	-0.169746	-146.379132	-0.169746	-146.379132	-33.526600	115.218203
2.300000	-33.019232	111.965916	-0.174639	-149.770365	-0.174639	-149.770365	-33.019954	112.033200
2.350000	-32.396271	108.857416	-0.179695	-153.174386	-0.179695	-153.174386	-32.396922	108.922238
2.400000	-31.669654	105.801847	-0.184937	-156.591955	-0.184937	-156.591955	-31.670220	105.863493
2.450000	-30.855090	102.775202	-0.190397	-160.023889	-0.190397	-160.023889	-30.855566	102.833174
2.500000	-29.969594	99.754705	-0.196119	-163.471067	-0.196119	-163.471067	-29.969982	99.808720
2.550000	-29.026862	96.720345	-0.202170	-166.934807	-0.202170	-166.934807	-29.027168	96.770309
2.600000	-28.045959	93.657301	-0.208616	-170.415789	-0.208616	-170.415789	-28.046194	93.703269
2.650000	-27.040700	90.555213	-0.215544	-173.915081	-0.215544	-173.915081	-27.040875	90.597344
2.700000	-26.022752	87.407423	-0.223060	-177.433809	-0.223060	-177.433809	-26.022878	87.445944
2.750000	-25.004775	84.211539	-0.231266	179.027447	-0.231266	179.027447	-25.004861	84.246705
2.800000	-23.988499	80.963333	-0.240346	175.466459	-0.240346	175.466459	-23.988553	80.995425
2.850000	-22.981671	77.663088	-0.250467	171.882241	-0.250467	171.882241	-22.981700	77.692386
2.900000	-21.989471	74.311560	-0.261825	168.273658	-0.261825	168.273658	-21.989481	74.338329
2.950000	-21.015545	70.909804	-0.274647	164.639541	-0.274647	164.639541	-21.015542	70.934291
3.000000	-20.062349	67.458921	-0.289191	160.978686	-0.289191	160.978686	-20.062335	67.481352
3.050000	-19.131641	63.960056	-0.305753	157.289949	-0.305753	157.289949	-19.131619	63.980638
3.100000	-18.224654	60.414320	-0.324660	153.572267	-0.324660	153.572267	-18.224627	60.433240
3.150000	-17.341891	56.822532	-0.346294	149.824531	-0.346294	149.824531	-17.341860	56.839957
3.200000	-16.483994	53.185727	-0.371063	146.045941	-0.371063	146.045941	-16.483960	53.201807
3.250000	-15.651676	49.505171	-0.399392	142.236074	-0.399392	142.236074	-15.651640	49.520038
3.300000	-14.845145	45.781930	-0.431756	138.394580	-0.431756	138.394580	-14.845109	45.795701
3.350000	-14.064520	42.017178	-0.468661	134.521397	-0.468661	134.521397	-14.064483	42.029958
3.400000	-13.309863	38.212262	-0.510646	130.616791	-0.510646	130.616791	-13.309826	38.224145
3.450000	-12.581114	34.368667	-0.558289	126.681321	-0.558289	126.681321	-12.581077	34.379736
3.500000	-11.878168	30.488108	-0.612211	122.715910	-0.612211	122.715910	-11.878132	30.498437
3.550000	-11.201332	26.573152	-0.672960	118.722346	-0.672960	118.722346	-11.201297	26.582806
3.600000	-10.550604	22.626455	-0.741130	114.702659	-0.741130	114.702659	-10.550570	22.635494
3.650000	-9.926069	18.651253	-0.817263	110.659509	-0.817263	110.659509	-9.926036	18.659729
3.700000	-9.327467	14.650761	-0.902030	106.595686	-0.902030	106.595686	-9.327434	14.658722
3.750000	-8.754924	10.629258	-0.995901	102.514993	-0.995901	102.514993	-8.754893	10.636746
3.800000	-8.208335	6.591195	-1.099406	98.421513	-1.099406	98.421513	-8.208305	6.598248
3.850000	-7.687655	2.541648	-1.212925	94.319950	-1.212925	94.319950	-7.687626	2.548301
3.900000	-7.192717	-1.514027	-1.336810	90.215345	-1.336810	90.215345	-7.192689	-1.507744
3.950000	-6.723304	-5.570082	-1.471421	86.113193	-1.471421	86.113193	-6.723277	-5.564139
4.000000	-6.279119	-9.620597	-1.616768	82.019105	-1.616768	82.019105	-6.279093	-9.614969
4.050000	-5.859769	-13.659471	-1.772996	77.938974	-1.772996	77.938974	-5.859744	-13.654136
4.100000	-5.464842	-17.680340	-1.940138	73.878975	-1.940138	73.878975	-5.464818	-17.675277
4.150000	-5.093777	-21.677093	-2.118006	69.845023	-2.118006	69.845023	-5.093753	-21.672282
4.200000	-4.745913	-25.643807	-2.306338	65.842873	-2.306338	65.842873	-4.745890	-25.639231
4.250000	-4.420526	-29.574762	-2.504795	61.878104	-2.504795	61.878104	-4.420504	-29.570405
4.300000	-4.116820	-33.464577	-2.712947	57.955973	-2.712947	57.955973	-4.116799	-33.460424
4.350000	-3.833936	-37.308288	-2.930281	54.081340	-2.930281	54.081340	-3.833915	-37.304326
4.400000	-3.571024	-41.101113	-3.156226	50.258902	-3.156226	50.258902	-3.571004	-41.097330
4.450000	-3.327134	-44.839034	-3.390123	46.492598	-3.390123	46.492598	-3.327115	-44.835417
4.500000	-3.101218	-48.518938	-3.631272	42.785466	-3.631272	42.785466	-3.101200	-48.515478
4.550000	-2.892277	-52.138005	-3.878957	39.140267	-3.878957	39.140267	-2.892259	-52.134693
4.600000	-2.699575	-55.692392	-4.132385	35.560817	-4.132385	35.560817	-2.699558	-55.689218
4.650000	-2.521627	-59.183165	-4.390889	32.045955	-4.390889	32.045955	-2.521611	-59.180121
4.700000	-2.357669	-62.607940	-4.653709	28.598038	-4.653709	28.598038	-2.357653	-62.605019
4.750000	-2.206748	-65.966015	-4.920122	25.217722	-4.920122	25.217722	-2.206733	-65.963209
4.800000	-2.067944	-69.257127	-5.189426	21.905221	-5.189426	21.905221	-2.067929	-69.254430
4.850000	-1.940375	-72.481412	-5.460946	18.660349	-5.460946	18.660349	-1.940360	-72.478818
4.900000	-1.823202	-75.639355	-5.734039	15.482569	-5.734039	15.482569	-1.823187	-75.636859
4.950000	-1.715628	-78.731746	-6.008098	12.371032	-6.008098	12.371032	-1.715614	-78.729342
5.000000	-1.616906	-81.759633	-6.282551	9.324629	-6.282551	9.324629	-1.616892	-81.757317
5.050000	-1.526478	-84.722942	-6.556665	6.343379	-6.556665	6.343379	-1.526464	-84.720708
5.100000	-1.443523	-87.624527	-6.830134	3.424342	-6.830134	3.424342	-1.443510	-87.622373
5.150000	-1.367435	-90.465980	-7.102508	0.565852	-7.102508	0.565852	-1.367423	-90.463901
5.200000	-1.297652	-93.248997	-7.373378	-2.233868	-7.373378	-2.233868	-1.297639	-93.246989
5.250000	-1.233653	-95.975350	-7.642370	-4.976672	-7.642370	-4.976672	-1.233641	-95.973409
5.300000	-1.174960	-98.646865	-7.909145	-7.664475	-7.909145	-7.664475	-1.174948	-98.644989
5.350000	-1.121132	-101.265397	-8.173397	-10.299221	-8.173397	-10.299221	-1.121120	-101.263583
5.400000	-1.071765	-103.832817	-8.434853	-12.882872	-8.434853	-12.882872	-1.071753	-103.831062
5.450000	-1.026487	-106.350990	-8.693268	-15.417390	-8.693268	-15.417390	-1.026476	-106.349291
5.500000	-0.984960	-108.821768	-8.948424	-17.904723	-8.948424	-17.904723	-0.984949	-108.820123
5.550000	-0.946873	-111.246977	-9.200127	-20.346793	-9.200127	-20.346793	-0.946862	-111.245384
5.600000	-0.911940	-113.628411	-9.448210	-22.745491	-9.448210	-22.745491	-0.911929	-113.626867
5.650000	-0.879931	-115.967384	-9.692407	-25.102236	-9.692407	-25.102236	-0.879921	-115.965887
5.700000	-0.850601	-118.265661	-9.932595	-27.418893	-9.932595	-27.418893	-0.850591	-118.264210
5.750000	-0.823706	-120.525354	-10.168781	-29.697664	-10.168781	-29.697664	-0.823696	-120.523947
5.800000	-0.799048	-122.748068	-10.400871	-31.940249	-10.400871	-31.940249	-0.799038	-122.746704
5.850000	-0.776605	-124.932428	-10.627914	-34.145448	-10.627914	-34.145448	-0.776595	-124.931104
5.900000	-0.755867	-127.086264	-10.851712	-36.321009	-10.851712	-36.321009	-0.755858	-127.084980
5.950000	-0.736877	-129.207580	-11.071212	-38.465106	-11.071212	-38.465106	-0.736868	-129.206333
6.000000	-0.719497	-131.297766	-11.286370	-40.579217	-11.286370	-40.579217	-0.719488	-131.296556
6.050000	-0.703602	-133.358164	-11.497152	-42.664761	-11.497152	-42.664761	-0.703593	-133.356990
6.100000	-0.689076	-135.390063	-11.703534	-44.723104	-11.703534	-44.723104	-0.689067	-135.388923
6.150000	-0.675814	-137.394701	-11.905499	-46.755556	-11.905499	-46.755556	-0.675806	-137.393595
6.200000	-0.663720	-139.373267	-12.103035	-48.763374	-12.103035	-48.763374	-0.663712	-139.372193
6.250000	-0.652705	-141.326903	-12.296140	-50.747762	-12.296140	-50.747762	-0.652697	-141.325861
6.300000	-0.642728	-143.255720	-12.484450	-52.708958	-12.484450	-52.708958	-0.642720	-143.254708
6.350000	-0.633669	-145.161847	-12.668357	-54.649078	-12.668357	-54.649078	-0.633661	-145.160865
6.400000	-0.625460	-147.046289	-12.847870	-56.569174	-12.847870	-56.569174	-0.625452	-147.045336
6.450000	-0.618039	-148.910010	-13.023005	-58.470251	-13.023005	-58.470251	-0.618032	-148.909085
6.500000	-0.611349	-150.753936	-13.193779	-60.353268	-13.193779	-60.353268	-0.611341	-150.753040
6.550000	-0.605336	-152.578957	-13.360216	-62.219145	-13.360216	-62.219145	-0.605329	-152.578088
6.600000	-0.599953	-154.385927	-13.522337	-64.068759	-13.522337	-64.068759	-0.599946	-154.385084
6.650000	-0.595154	-156.175666	-13.680168	-65.902947	-13.680168	-65.902947	-0.595148	-156.174850
6.700000	-0.590899	-157.948965	-13.833739	-67.722511	-13.833739	-67.722511	-0.590892	-157.948175
6.750000	-0.587148	-159.706582	-13.983077	-69.528213	-13.983077	-69.528213	-0.587142	-159.705818
6.800000	-0.583866	-161.449248	-14.128215	-71.320782	-14.128215	-71.320782	-0.583860	-161.448508
6.850000	-0.581020	-163.177664	-14.269183	-73.100913	-14.269183	-73.100913	-0.581015	-163.176950
6.900000	-0.578581	-164.892508	-14.406015	-74.869271	-14.406015	-74.869271	-0.578575	-164.891818
6.950000	-0.576519	-166.594430	-14.538743	-76.626485	-14.538743	-76.626485	-0.576514	-166.593765
7.000000	-0.574809	-168.284060	-14.667402	-78.373161	-14.667402	-78.373161	-0.574804	-168.283419
7.050000	-0.573427	-169.962002	-14.792026	-80.109870	-14.792026	-80.109870	-0.573422	-169.961385
7.100000	-0.572349	-171.628841	-14.912649	-81.837161	-14.912649	-81.837161	-0.572345	-171.628248
7.150000	-0.571556	-173.285140	-15.029305	-83.555554	-15.029305	-83.555554	-0.571552	-173.284571
7.200000	-0.571028	-174.931443	-15.142029	-85.265545	-15.142029	-85.265545	-0.571024	-174.930898
7.250000	-0.570747	-176.568276	-15.250853	-86.967606	-15.250853	-86.967606	-0.570743	-176.567754
7.300000	-0.570696	-178.196146	-15.355812	-88.662187	-15.355812	-88.662187	-0.570692	-178.195648
7.350000	-0.570860	-179.815544	-15.456939	-90.349716	-15.456939	-90.349716	-0.570856	-179.815071
7.400000	-0.571224	178.573054	-15.554266	-92.030598	-15.554266	-92.030598	-0.571221	178.573504
7.450000	-0.571775	176.969191	-15.647824	-93.705220	-15.647824	-93.705220	-0.571772	176.969616
7.500000	-0.572501	175.372420	-15.737645	-95.373950	-15.737645	-95.373950	-0.572499	175.372820
7.550000	-0.573397	173.782581	-15.823564	-97.036911	-15.823564	-97.036911	-0.573395	173.782957
7.600000	-0.574445	172.198953	-15.905813	-98.694691	-15.905813	-98.694691	-0.574443	172.199303
7.650000	-0.575636	170.621131	-15.984420	-100.347602	-15.984420	-100.347602	-0.575634	170.621456
7.700000	-0.576960	169.048726	-16.059413	-101.995941	-16.059413	-101.995941	-0.576958	169.049026
7.750000	-0.578409	167.481362	-16.130816	-103.639992	-16.130816	-103.639992	-0.578407	167.481635
7.800000	-0.579976	165.918671	-16.198653	-105.280023	-16.198653	-105.280023	-0.579974	165.918918
7.850000	-0.581654	164.360298	-16.262949	-106.916291	-16.262949	-106.916291	-0.581653	164.360518
7.900000	-0.583437	162.805900	-16.323724	-108.549037	-16.323724	-108.549037	-0.583436	162.806092
7.950000	-0.585320	161.255141	-16.381001	-110.178492	-16.381001	-110.178492	-0.585319	161.255305
8.000000	-0.587297	159.707698	-16.434797	-111.804877	-16.434797	-111.804877	-0.587296	159.707833
8.050000	-0.589364	158.163257	-16.485133	-113.428400	-16.485133	-113.428400	-0.589363	158.163362
8.100000	-0.591517	156.621512	-16.532024	-115.049259	-16.532024	-115.049259	-0.591517	156.621587
8.150000	-0.593753	155.082169	-16.575486	-116.667645	-16.575486	-116.667645	-0.593753	155.082213
8.200000	-0.596069	153.544941	-16.615533	-118.283738	-16.615533	-118.283738	-0.596069	153.544953
8.250000	-0.598462	152.009549	-16.652179	-119.897711	-16.652179	-119.897711	-0.598462	152.009529
8.300000	-0.600931	150.475726	-16.685434	-121.509728	-16.685434	-121.509728	-0.600931	150.475672
8.350000	-0.603473	148.943209	-16.715309	-123.119948	-16.715309	-123.119948	-0.603473	148.943121
8.400000	-0.606089	147.411748	-16.741813	-124.728522	-16.741813	-124.728522	-0.606089	147.411625
8.450000	-0.608777	145.881098	-16.764951	-126.335597	-16.764951	-126.335597	-0.608777	145.880938
8.500000	-0.611537	144.351022	-16.784731	-127.941313	-16.784731	-127.941313	-0.611538	144.350825
8.550000	-0.614369	142.821292	-16.801155	-129.545806	-16.801155	-129.545806	-0.614370	142.821057
8.600000	-0.617275	141.291689	-16.814227	-131.149209	-16.814227	-131.149209	-0.617276	141.291414
8.650000	-0.620254	139.762000	-16.823948	-132.751650	-16.823948	-132.751650	-0.620256	139.761684
8.700000	-0.623309	138.232021	-16.830317	-134.353256	-16.830317	-134.353256	-0.623311	138.231663
8.750000	-0.626442	136.701554	-16.833332	-135.954149	-16.833332	-135.954149	-0.626443	136.701152
8.800000	-0.629657	135.170372	-16.832843	-137.554433	-16.832843	-137.554433	-0.629659	135.169926
8.850000	-0.632954	133.638316	-16.828990	-139.154260	-16.828990	-139.154260	-0.632956	133.637824
8.900000	-0.636337	132.105214	-16.821766	-140.753751	-16.821766	-140.753751	-0.636339	132.104675
8.950000	-0.639808	130.570901	-16.811162	-142.353027	-16.811162	-142.353027	-0.639810	130.570312
9.000000	-0.643370	129.035219	-16.797167	-143.952212	-16.797167	-143.952212	-0.643373	129.034580
9.050000	-0.647029	127.498018	-16.779768	-145.551430	-16.779768	-145.551430	-0.647033	127.497327
9.100000	-0.650789	125.959158	-16.758951	-147.150808	-16.758951	-147.150808	-0.650792	125.958413
9.150000	-0.654653	124.418504	-16.734700	-148.750477	-16.734700	-148.750477	-0.654657	124.417704
9.200000	-0.658627	122.875929	-16.706998	-150.350573	-16.706998	-150.350573	-0.658631	122.875073
9.250000	-0.662716	121.331317	-16.675824	-151.951236	-16.675824	-151.951236	-0.662721	121.330402
9.300000	-0.666926	119.784557	-16.641157	-153.552612	-16.641157	-153.552612	-0.666931	119.783581
9.350000	-0.671262	118.235547	-16.602973	-155.154853	-16.602973	-155.154853	-0.671268	118.234509
9.400000	-0.675731	116.684192	-16.561248	-156.758122	-16.561248	-156.758122	-0.675737	116.683090
9.450000	-0.680338	115.130408	-16.515954	-158.362588	-16.515954	-158.362588	-0.680346	115.129240
9.500000	-0.685091	113.574116	-16.467060	-159.968430	-16.467060	-159.968430	-0.685099	113.572880
9.550000	-0.689997	112.015248	-16.414536	-161.575842	-16.414536	-161.575842	-0.690005	112.013942
9.600000	-0.695061	110.453742	-16.358348	-163.185025	-16.358348	-163.185025	-0.695071	110.452365
9.650000	-0.700293	108.889547	-16.298459	-164.796197	-16.298459	-164.796197	-0.700303	108.888096
9.700000	-0.705698	107.322619	-16.234832	-166.409592	-16.234832	-166.409592	-0.705710	107.321092
9.750000	-0.711285	105.752922	-16.167425	-168.025460	-16.167425	-168.025460	-0.711298	105.751318
9.800000	-0.717062	104.180431	-16.096194	-169.644068	-16.096194	-169.644068	-0.717076	104.178747
9.850000	-0.723037	102.605128	-16.021095	-171.265704	-16.021095	-171.265704	-0.723052	102.603361
9.900000	-0.729217	101.027003	-15.942078	-172.890681	-15.942078	-172.890681	-0.729234	101.025153
9.950000	-0.735611	99.446058	-15.859092	-174.519332	-15.859092	-174.519332	-0.735630	99.444121
10.000000	-0.742228	97.862301	-15.772082	-176.152020	-15.772082	-176.152020	-0.742249	97.860276
