! freq	dB(S11)	phase(S11)	dB(S12)	phase(S12)	
!     	dB(S21)	phase(S21)	dB(S22)	phase(S22)	
!S-par simulation data
#  GHz  S  DB  R 50
0.000000	-75.451630	0.000000	-0.001466	0.000000	-0.001466	0.000000	-75.451630	0.000000
0.050000	-50.796173	-83.458581	-0.011579	-4.720741	-0.011579	-4.720741	-50.810415	-83.781627
0.100000	-44.894147	-93.612016	-0.018864	-9.371613	-0.018864	-9.371613	-44.916852	-94.260934
0.150000	-41.476861	-100.073406	-0.024436	-14.021253	-0.024436	-14.021253	-41.499291	-101.051061
0.200000	-39.107637	-105.640120	-0.030224	-18.670189	-0.030224	-18.670189	-39.127930	-106.947508
0.250000	-37.331179	-110.825871	-0.036392	-23.316512	-0.036392	-23.316512	-37.348299	-112.464439
0.300000	-35.955238	-115.814067	-0.042766	-27.959190	-0.042766	-27.959190	-35.968206	-117.785854
0.350000	-34.854258	-120.710441	-0.049110	-32.599066	-0.049110	-32.599066	-34.862580	-123.017414
0.400000	-33.982361	-125.540916	-0.055236	-37.236457	-0.055236	-37.236457	-33.985394	-128.185620
0.450000	-33.280795	-130.338284	-0.061081	-41.872648	-0.061081	-41.872648	-33.278328	-133.323067
0.500000	-32.744567	-135.111993	-0.066531	-46.508508	-0.066531	-46.508508	-32.736419	-138.440188
0.550000	-32.337092	-139.875259	-0.071641	-51.144979	-0.071641	-51.144979	-32.323500	-143.550468
0.600000	-32.060298	-144.633884	-0.076395	-55.783015	-0.076395	-55.783015	-32.041834	-148.661909
0.650000	-31.901096	-149.392633	-0.080855	-60.423247	-0.080855	-60.423247	-31.878689	-153.781762
0.700000	-31.857174	-154.154263	-0.085072	-65.066296	-0.085072	-65.066296	-31.832089	-158.917333
0.750000	-31.936835	-158.920393	-0.089092	-69.712874	-0.089092	-69.712874	-31.910595	-164.077833
0.800000	-32.131890	-163.691388	-0.092991	-74.363004	-0.092991	-74.363004	-32.105764	-169.269355
0.850000	-32.471330	-168.470090	-0.096810	-79.017636	-0.096810	-79.017636	-32.446232	-174.510014
0.900000	-32.961763	-173.261481	-0.100612	-83.676720	-0.100612	-83.676720	-32.937465	-179.814335
0.950000	-33.633004	-178.077938	-0.104446	-88.340600	-0.104446	-88.340600	-33.607706	174.789351
1.000000	-34.527469	177.056377	-0.108359	-93.009501	-0.108359	-93.009501	-34.497095	169.255565
1.050000	-35.712920	172.095226	-0.112394	-97.683617	-0.112394	-97.683617	-35.669882	163.502419
1.100000	-37.305327	166.944632	-0.116588	-102.363113	-0.116588	-102.363113	-37.235505	157.365187
1.150000	-39.526514	161.382665	-0.120975	-107.048129	-0.120975	-107.048129	-39.399805	150.456554
1.200000	-42.886569	154.722754	-0.125584	-111.738789	-0.125584	-111.738789	-42.616805	141.611095
1.250000	-49.065815	143.380717	-0.130439	-116.435200	-0.130439	-116.435200	-48.193777	125.352321
1.300000	-58.933952	28.863706	-0.135566	-121.137588	-0.135566	-121.137588	-55.544549	39.863040
1.350000	-46.289776	-22.126812	-0.140972	-125.845919	-0.140972	-125.845919	-46.375745	-22.050852
1.400000	-40.677983	-31.584626	-0.146667	-130.560281	-0.146667	-130.560281	-40.855468	-36.650929
1.450000	-37.166600	-37.788199	-0.152654	-135.280765	-0.152654	-135.280765	-37.332880	-45.078909
1.500000	-34.600250	-43.126794	-0.158931	-140.007469	-0.158931	-140.007469	-34.750801	-51.852230
1.550000	-32.578528	-48.101728	-0.165491	-144.740506	-0.165491	-144.740506	-32.715795	-57.954722
1.600000	-30.915522	-52.883787	-0.172320	-149.480006	-0.172320	-149.480006	-31.042183	-63.726995
1.650000	-29.509665	-57.546131	-0.179402	-154.226122	-0.179402	-154.226122	-29.627963	-69.319904
1.700000	-28.299364	-62.124328	-0.186713	-158.979039	-0.186713	-158.979039	-28.411137	-74.812018
1.750000	-27.244436	-66.636768	-0.194226	-163.738976	-0.194226	-163.738976	-27.351214	-80.249584
1.800000	-26.317216	-71.092911	-0.201908	-168.506196	-0.201908	-168.506196	-26.420296	-85.662762
1.850000	-25.497851	-75.497043	-0.209726	-173.281007	-0.209726	-173.281007	-25.598355	-91.073134
1.900000	-24.771925	-79.849556	-0.217640	-178.063864	-0.217640	-178.063864	-24.870856	-96.497861
1.950000	-24.128325	-84.148917	-0.225609	177.144792	-0.225609	177.144792	-24.226596	-101.951650
2.000000	-23.558011	-88.392255	-0.233589	172.344557	-0.233589	172.344557	-23.656472	-107.447323
2.050000	-23.054012	-92.574487	-0.241539	167.534867	-0.241539	167.534867	-23.153491	-112.997540
2.100000	-22.609802	-96.690759	-0.249418	162.715348	-0.249418	162.715348	-22.711106	-118.613313
2.150000	-22.222247	-100.729764	-0.257184	157.884842	-0.257184	157.884842	-22.326265	-124.311451
2.200000	-21.886857	-104.682404	-0.264801	153.042710	-0.264801	153.042710	-21.994527	-130.106042
2.250000	-21.600414	-108.535877	-0.272235	148.187990	-0.272235	148.187990	-21.712774	-136.014701
2.300000	-21.359504	-112.276543	-0.279462	143.319809	-0.279462	143.319809	-21.477698	-142.055584
2.350000	-21.161174	-115.887607	-0.286465	138.437111	-0.286465	138.437111	-21.286483	-148.250181
2.400000	-21.002818	-119.347674	-0.293232	133.538569	-0.293232	133.538569	-21.136694	-154.625228
2.450000	-20.880313	-122.638996	-0.299773	128.623414	-0.299773	128.623414	-21.024313	-161.202903
2.500000	-20.790635	-125.733852	-0.306098	123.690076	-0.306098	123.690076	-20.946488	-168.017322
2.550000	-20.729842	-128.600037	-0.312234	118.736819	-0.312234	118.736819	-20.899414	-175.108209
2.600000	-20.692036	-131.210652	-0.318231	113.762466	-0.318231	113.762466	-20.877178	177.490709
2.650000	-20.670461	-133.534976	-0.324151	108.765472	-0.324151	108.765472	-20.872899	169.740340
2.700000	-20.656644	-135.544167	-0.330079	103.744223	-0.330079	103.744223	-20.877750	161.602704
2.750000	-20.640092	-137.215132	-0.336118	98.697044	-0.336118	98.697044	-20.880564	153.045215
2.800000	-20.608185	-138.535991	-0.342395	93.622205	-0.342395	93.622205	-20.867627	144.046965
2.850000	-20.546013	-139.510365	-0.349065	88.517673	-0.349065	88.517673	-20.822451	134.603558
2.900000	-20.437824	-140.172723	-0.356307	83.381767	-0.356307	83.381767	-20.727330	124.746474
2.950000	-20.268318	-140.587651	-0.364326	78.212722	-0.364326	78.212722	-20.564900	114.542531
3.000000	-20.024401	-140.850935	-0.373358	73.008674	-0.373358	73.008674	-20.320313	104.095540
3.050000	-19.697362	-141.084744	-0.383669	67.767753	-0.383669	67.767753	-19.983910	93.540595
3.100000	-19.284421	-141.424934	-0.395559	62.488089	-0.395559	62.488089	-19.553114	83.028255
3.150000	-18.788587	-142.006228	-0.409375	57.167599	-0.409375	57.167599	-19.032231	72.705452
3.200000	-18.219005	-142.943745	-0.425495	51.804431	-0.425495	51.804431	-18.432563	62.694276
3.250000	-17.589100	-144.319034	-0.444320	46.397029	-0.444320	46.397029	-17.769966	53.076668
3.300000	-16.913207	-146.181977	-0.466306	40.943680	-0.466306	40.943680	-17.060919	43.896987
3.350000	-16.205350	-148.552527	-0.491948	35.442755	-0.491948	35.442755	-16.321082	35.166100
3.400000	-15.478058	-151.427126	-0.521792	29.892730	-0.521792	29.892730	-15.564060	26.869947
3.450000	-14.741631	-154.787181	-0.556449	24.292079	-0.556449	24.292079	-14.800739	18.979409
3.500000	-14.004148	-158.604997	-0.596606	18.639291	-0.596606	18.639291	-14.039433	11.457111
3.550000	-13.272540	-162.841934	-0.642934	12.933785	-0.642934	12.933785	-13.287088	4.257697
3.600000	-12.551538	-167.461815	-0.696201	7.174841	-0.696201	7.174841	-12.548300	-2.660554
3.650000	-11.844815	-172.427257	-0.757198	1.362367	-0.757198	1.362367	-11.826545	-9.338155
3.700000	-11.154330	-177.708413	-0.826931	-4.504333	-0.826931	-4.504333	-11.123562	-15.808318
3.750000	-10.482273	176.729738	-0.906305	-10.424270	-0.906305	-10.424270	-10.441321	-22.105271
3.800000	-9.829793	170.915580	-0.996436	-16.396680	-0.996436	-16.396680	-9.780764	-28.256432
3.850000	-9.198240	164.879748	-1.098336	-22.419186	-1.098336	-22.419186	-9.143038	-34.287738
3.900000	-8.588498	158.649037	-1.213136	-28.488970	-1.213136	-28.488970	-8.528843	-40.220066
3.950000	-8.001351	152.249020	-1.341996	-34.602205	-1.341996	-34.602205	-7.938787	-46.070833
4.000000	-7.437528	145.704354	-1.486083	-40.753937	-1.486083	-40.753937	-7.373434	-51.854168
4.050000	-6.897722	139.039029	-1.646545	-46.937987	-1.646545	-46.937987	-6.833321	-57.581071
4.100000	-6.382564	132.275976	-1.824586	-53.147023	-1.824586	-53.147023	-6.318936	-63.259237
4.150000	-5.892748	125.439232	-2.021122	-59.372013	-2.021122	-59.372013	-5.830824	-68.894213
4.200000	-5.428821	118.551938	-2.236956	-65.602875	-2.236956	-65.602875	-5.369392	-74.488742
4.250000	-4.991194	111.636641	-2.472753	-71.828508	-2.472753	-71.828508	-4.934922	-80.043134
4.300000	-4.580134	104.715441	-2.728954	-78.036937	-2.728954	-78.036937	-4.527562	-85.555688
4.350000	-4.195730	97.809824	-3.005754	-84.215583	-3.005754	-84.215583	-4.147292	-91.023029
4.400000	-3.837943	90.940737	-3.303132	-90.351283	-3.303132	-90.351283	-3.793975	-96.440180
4.450000	-3.506472	84.128041	-3.620702	-96.431039	-3.620702	-96.431039	-3.467218	-101.801452
4.500000	-3.200703	77.389691	-3.957779	-102.442739	-3.957779	-102.442739	-3.166324	-107.101010
4.550000	-2.919872	70.742246	-4.313487	-108.374802	-4.313487	-108.374802	-2.890457	-112.332623
4.600000	-2.663023	64.200476	-4.686736	-114.216680	-4.686736	-114.216680	-2.638599	-117.490267
4.650000	-2.429039	57.777225	-5.076254	-119.959080	-5.076254	-119.959080	-2.409576	-122.568408
4.700000	-2.217221	51.488216	-5.480415	-125.590064	-5.480415	-125.590064	-2.202645	-127.559089
4.750000	-2.025188	45.333512	-5.898001	-131.110420	-5.898001	-131.110420	-2.015371	-132.463973
4.800000	-1.852012	39.323773	-6.327366	-136.511982	-6.327366	-136.511982	-1.846796	-137.277513
4.850000	-1.696267	33.463916	-6.766945	-141.791201	-6.766945	-141.791201	-1.695459	-141.997640
4.900000	-1.556535	27.757116	-7.215195	-146.945844	-7.215195	-146.945844	-1.559913	-146.623217
4.950000	-1.431427	22.204980	-7.670616	-151.974863	-7.670616	-151.974863	-1.438746	-151.153973
5.000000	-1.319609	16.807724	-8.131780	-156.878260	-8.131780	-156.878260	-1.330603	-155.590421
5.050000	-1.220027	11.567671	-8.596859	-161.654257	-8.596859	-161.654257	-1.234408	-159.931762
5.100000	-1.131242	6.479407	-9.065015	-166.307280	-9.065015	-166.307280	-1.148713	-164.181834
5.150000	-1.052157	1.540075	-9.535105	-170.839618	-9.535105	-170.839618	-1.072409	-168.342865
5.200000	-0.981760	-3.253824	-10.006085	-175.254029	-10.006085	-175.254029	-1.004480	-172.417427
5.250000	-0.919133	-7.906287	-10.477006	-179.553632	-10.477006	-179.553632	-0.944002	-176.408335
5.300000	-0.863439	-12.421680	-10.947012	176.258197	-10.947012	176.258197	-0.890137	179.681427
5.350000	-0.813926	-16.804626	-11.415338	172.177902	-11.415338	172.177902	-0.842131	175.848783
5.400000	-0.769918	-21.059909	-11.881297	168.201821	-11.881297	168.201821	-0.799312	172.090622
5.450000	-0.730809	-25.192399	-12.344282	164.326241	-12.344282	164.326241	-0.761077	168.403845
5.500000	-0.696061	-29.206984	-12.803756	160.547443	-12.803756	160.547443	-0.726891	164.785404
5.550000	-0.665193	-33.108523	-13.259244	156.861741	-13.259244	156.861741	-0.696280	161.232329
5.600000	-0.637779	-36.901801	-13.710331	153.265511	-13.710331	153.265511	-0.668824	157.741754
5.650000	-0.613470	-40.590427	-14.156352	149.756102	-14.156352	149.756102	-0.644178	154.311548
5.700000	-0.591923	-44.179107	-14.597002	146.329955	-14.597002	146.329955	-0.622005	150.939004
5.750000	-0.572810	-47.673367	-15.032314	142.982807	-15.032314	142.982807	-0.601991	147.620992
5.800000	-0.555873	-51.077452	-15.462053	139.711445	-15.462053	139.711445	-0.583883	144.355167
5.850000	-0.540881	-54.395446	-15.886018	136.512777	-15.886018	136.512777	-0.567460	141.139319
5.900000	-0.527630	-57.631265	-16.304035	133.383834	-16.304035	133.383834	-0.552526	137.971371
5.950000	-0.515941	-60.788658	-16.715957	130.321769	-16.715957	130.321769	-0.538910	134.849376
6.000000	-0.505655	-63.871208	-17.121659	127.323856	-17.121659	127.323856	-0.526460	131.771510
6.050000	-0.496677	-66.879424	-17.519996	124.390017	-17.519996	124.390017	-0.515082	128.737820
6.100000	-0.488774	-69.823225	-17.913237	121.511992	-17.913237	121.511992	-0.504571	125.742726
6.150000	-0.481899	-72.701900	-18.299981	118.690697	-18.299981	118.690697	-0.494876	122.787016
6.200000	-0.475953	-75.518413	-18.680168	115.923857	-18.680168	115.923857	-0.485907	119.869304
6.250000	-0.470849	-78.275585	-19.053752	113.209300	-19.053752	113.209300	-0.477583	116.988296
6.300000	-0.466538	-80.973756	-19.419748	110.547044	-19.419748	110.547044	-0.469857	114.144279
6.350000	-0.462915	-83.618042	-19.779129	107.932851	-19.779129	107.932851	-0.462639	111.334548
6.400000	-0.459919	-86.210852	-20.131873	105.364846	-20.131873	105.364846	-0.455876	108.558067
6.450000	-0.457495	-88.754481	-20.477966	102.841239	-20.477966	102.841239	-0.449522	105.813873
6.500000	-0.455594	-91.251112	-20.817400	100.360322	-20.817400	100.360322	-0.443534	103.101068
6.550000	-0.454173	-93.702819	-21.150173	97.920463	-21.150173	97.920463	-0.437876	100.418812
6.600000	-0.453192	-96.111580	-21.476283	95.520102	-21.476283	95.520102	-0.432517	97.766323
6.650000	-0.452615	-98.479276	-21.795737	93.157750	-21.795737	93.157750	-0.427428	95.142870
6.700000	-0.452410	-100.807700	-22.108540	90.831982	-22.108540	90.831982	-0.422585	92.547770
6.750000	-0.452550	-103.098557	-22.414702	88.541435	-22.414702	88.541435	-0.417967	89.980382
6.800000	-0.453007	-105.353475	-22.714235	86.284805	-22.714235	86.284805	-0.413555	87.440106
6.850000	-0.453757	-107.574005	-23.007151	84.060843	-23.007151	84.060843	-0.409333	84.926380
6.900000	-0.454781	-109.761627	-23.293465	81.868354	-23.293465	81.868354	-0.405288	82.438675
6.950000	-0.456058	-111.917754	-23.573190	79.706189	-23.573190	79.706189	-0.401406	79.976492
7.000000	-0.457570	-114.043733	-23.846343	77.573249	-23.846343	77.573249	-0.397677	77.539361
7.050000	-0.459302	-116.140852	-24.112938	75.468475	-24.112938	75.468475	-0.394094	75.126838
7.100000	-0.461239	-118.210343	-24.372991	73.390853	-24.372991	73.390853	-0.390648	72.738503
7.150000	-0.463367	-120.253382	-24.626516	71.339403	-24.626516	71.339403	-0.387333	70.373957
7.200000	-0.465673	-122.271096	-24.873528	69.313183	-24.873528	69.313183	-0.384143	68.032820
7.250000	-0.468148	-124.264562	-25.114040	67.311283	-25.114040	67.311283	-0.381076	65.714729
7.300000	-0.470779	-126.234814	-25.348063	65.332822	-25.348063	65.332822	-0.378126	63.419341
7.350000	-0.473557	-128.182840	-25.575609	63.376943	-25.575609	63.376943	-0.375292	61.146322
7.400000	-0.476474	-130.109590	-25.796688	61.442815	-25.796688	61.442815	-0.372571	58.895355
7.450000	-0.479521	-132.015973	-26.011307	59.529619	-26.011307	59.529619	-0.369963	56.666133
7.500000	-0.482690	-133.902864	-26.219471	57.636551	-26.219471	57.636551	-0.367465	54.458359
7.550000	-0.485979	-135.770329	-26.420711	55.763611	-26.420711	55.763611	-0.365082	52.272655
7.600000	-0.489376	-137.620018	-26.615532	53.909117	-26.615532	53.909117	-0.362809	50.107810
7.650000	-0.492875	-139.452701	-26.803934	52.072235	-26.803934	52.072235	-0.360647	47.963554
7.700000	-0.496469	-141.269122	-26.985920	50.252096	-26.985920	50.252096	-0.358595	45.839623
7.750000	-0.500153	-143.069994	-27.161495	48.447762	-27.161495	48.447762	-0.356654	43.735760
7.800000	-0.503923	-144.856008	-27.330678	46.658200	-27.330678	46.658200	-0.354826	41.651710
7.850000	-0.507772	-146.627827	-27.493508	44.882250	-27.493508	44.882250	-0.353111	39.587226
7.900000	-0.511697	-148.386091	-27.650072	43.118620	-27.650072	43.118620	-0.351511	37.542061
7.950000	-0.515693	-150.131419	-27.800542	41.365966	-27.800542	41.365966	-0.350026	35.515974
8.000000	-0.519756	-151.864408	-27.945223	39.623228	-27.945223	39.623228	-0.348658	33.508724
8.050000	-0.523882	-153.585635	-28.084592	37.890487	-28.084592	37.890487	-0.347409	31.520073
8.100000	-0.528066	-155.295659	-28.219198	36.170420	-28.219198	36.170420	-0.346280	29.549786
8.150000	-0.532306	-156.995020	-28.349270	34.469209	-28.349270	34.469209	-0.345272	27.597627
8.200000	-0.536598	-158.684242	-28.474191	32.794225	-28.474191	32.794225	-0.344387	25.663362
8.250000	-0.540939	-160.363832	-28.592506	31.148406	-28.592506	31.148406	-0.343626	23.746759
8.300000	-0.545324	-162.034282	-28.702788	29.527052	-28.702788	29.527052	-0.342992	21.847583
8.350000	-0.549755	-163.695607	-28.803993	27.921741	-28.803993	27.921741	-0.342492	19.966578
8.400000	-0.554217	-165.350205	-28.898575	26.324084	-28.898575	26.324084	-0.342098	18.099377
8.450000	-0.558727	-166.994669	-28.982872	24.733380	-28.982872	24.733380	-0.341875	16.254132
8.500000	-0.563265	-168.633047	-29.061267	23.146821	-29.061267	23.146821	-0.341766	14.422840
8.550000	-0.567830	-170.265521	-29.133766	21.564509	-29.133766	21.564509	-0.341770	12.605399
8.600000	-0.572427	-171.890441	-29.198190	19.988480	-29.198190	19.988480	-0.341931	10.806568
8.650000	-0.577053	-173.508925	-29.255193	18.418759	-29.255193	18.418759	-0.342241	9.024747
8.700000	-0.581698	-175.122652	-29.306389	16.854023	-29.306389	16.854023	-0.342669	7.256110
8.750000	-0.586363	-176.731792	-29.351709	15.294289	-29.351709	15.294289	-0.343215	5.500551
8.800000	-0.591054	-178.334175	-29.387166	13.742428	-29.387166	13.742428	-0.343960	3.765924
8.850000	-0.595759	-179.932876	-29.416562	12.195017	-29.416562	12.195017	-0.344828	2.043795
8.900000	-0.600478	178.471946	-29.439811	10.651877	-29.439811	10.651877	-0.345819	0.334059
8.950000	-0.605212	176.880894	-29.455110	9.113781	-29.455110	9.113781	-0.346969	-1.360146
9.000000	-0.609959	175.293674	-29.461700	7.580291	-29.461700	7.580291	-0.348293	-3.038118
9.050000	-0.614716	173.708950	-29.461778	6.049691	-29.461778	6.049691	-0.349746	-4.704408
9.100000	-0.619481	172.126565	-29.455283	4.521727	-29.455283	4.521727	-0.351329	-6.359126
9.150000	-0.624256	170.547192	-29.438359	2.996772	-29.438359	2.996772	-0.353117	-7.996396
9.200000	-0.629038	168.969470	-29.413837	1.473011	-29.413837	1.473011	-0.355052	-9.621693
9.250000	-0.633825	167.393061	-29.382263	-0.050088	-29.382263	-0.050088	-0.357124	-11.236160
9.300000	-0.638619	165.817919	-29.342213	-1.573023	-29.342213	-1.573023	-0.359360	-12.838035
9.350000	-0.643418	164.243673	-29.291248	-3.097318	-29.291248	-3.097318	-0.361803	-14.424888
9.400000	-0.648223	162.669655	-29.232605	-4.623544	-29.232605	-4.623544	-0.364391	-16.001687
9.450000	-0.653032	161.095687	-29.166246	-6.152175	-29.166246	-6.152175	-0.367127	-17.568554
9.500000	-0.657848	159.521192	-29.088011	-7.685953	-29.088011	-7.685953	-0.370082	-19.121382
9.550000	-0.662671	157.945630	-28.999708	-9.225795	-28.999708	-9.225795	-0.373222	-20.663216
9.600000	-0.667502	156.368841	-28.902840	-10.771769	-28.902840	-10.771769	-0.376521	-22.195943
9.650000	-0.672341	154.790421	-28.796455	-12.325348	-28.796455	-12.325348	-0.379998	-23.718913
9.700000	-0.677194	153.208663	-28.675094	-13.893012	-28.675094	-13.893012	-0.383736	-25.228631
9.750000	-0.682059	151.624059	-28.544023	-15.472081	-28.544023	-15.472081	-0.387651	-26.730117
9.800000	-0.686939	150.036298	-28.403236	-17.063598	-28.403236	-17.063598	-0.391745	-28.223514
9.850000	-0.691840	148.443356	-28.247772	-18.675052	-28.247772	-18.675052	-0.396093	-29.706266
9.900000	-0.696767	146.844236	-28.077585	-20.309658	-28.077585	-20.309658	-0.400690	-31.179596
9.950000	-0.701716	145.239440	-27.896070	-21.965200	-27.896070	-21.965200	-0.405492	-32.645789
10.000000	-0.706690	143.628497	-27.703338	-23.643243	-27.703338	-23.643243	-0.410503	-34.104996
