! freq	dB(S11)	phase(S11)	dB(S12)	phase(S12)	
!     	dB(S21)	phase(S21)	dB(S22)	phase(S22)	
!S-par simulation data
#  GHz  S  DB  R 50
0.000000	-71.218579	0.000000	-0.002388	0.000000	-0.002388	0.000000	-71.218579	0.000000
0.050000	-42.358240	78.991691	-0.013213	-5.418357	-0.013213	-5.418357	-42.189350	76.880775
0.100000	-36.512330	74.863373	-0.024013	-10.752282	-0.024013	-10.752282	-36.509268	74.801278
0.150000	-33.071953	70.670419	-0.032604	-16.072694	-0.032604	-16.072694	-33.080283	70.797286
0.200000	-30.634876	66.168368	-0.041027	-21.386878	-0.041027	-21.386878	-30.630847	66.128897
0.250000	-28.757431	61.443858	-0.049600	-26.695376	-0.049600	-26.695376	-28.725429	61.214371
0.300000	-27.240237	56.565231	-0.058297	-31.998907	-0.058297	-31.998907	-27.163584	56.281896
0.350000	-25.976528	51.581413	-0.067089	-37.298576	-0.067089	-37.298576	-25.869176	51.556646
0.400000	-24.900610	46.528309	-0.075975	-42.595542	-0.075975	-42.595542	-24.818772	46.771599
0.450000	-23.970605	41.426605	-0.084971	-47.890511	-0.084971	-47.890511	-23.926596	41.686333
0.500000	-23.158547	36.289843	-0.094092	-53.183900	-0.094092	-53.183900	-23.137573	36.464443
0.550000	-22.444030	31.128289	-0.103336	-58.475979	-0.103336	-58.475979	-22.435287	31.216139
0.600000	-21.812121	25.949026	-0.112686	-63.766899	-0.112686	-63.766899	-21.810086	25.969520
0.650000	-21.252518	20.756830	-0.122112	-69.056730	-0.122112	-69.056730	-21.254364	20.730242
0.700000	-20.755912	15.555680	-0.131570	-74.345585	-0.131570	-74.345585	-20.760154	15.498262
0.750000	-20.316806	10.347981	-0.141006	-79.633539	-0.141006	-79.633539	-20.322541	10.272792
0.800000	-19.929036	5.135767	-0.150365	-84.920761	-0.150365	-84.920761	-19.935670	5.052450
0.850000	-19.590576	-0.079886	-0.159573	-90.207412	-0.159573	-90.207412	-19.597635	-0.163751
0.900000	-19.296448	-5.297972	-0.168575	-95.493777	-0.168575	-95.493777	-19.303555	-5.377238
0.950000	-19.046316	-10.518153	-0.177290	-100.780175	-0.177290	-100.780175	-19.053122	-10.589088
1.000000	-18.837127	-15.740146	-0.185665	-106.067002	-0.185665	-106.067002	-18.843331	-15.800553
1.050000	-18.668697	-20.964011	-0.193630	-111.354740	-0.193630	-111.354740	-18.674030	-21.012769
1.100000	-18.540285	-26.189911	-0.201129	-116.643941	-0.201129	-116.643941	-18.544526	-26.226853
1.150000	-18.451322	-31.418096	-0.208118	-121.935190	-0.208118	-121.935190	-18.454302	-31.443775
1.200000	-18.403399	-36.648995	-0.214538	-127.229262	-0.214538	-127.229262	-18.405003	-36.664562
1.250000	-18.395353	-41.882832	-0.220385	-132.526739	-0.220385	-132.526739	-18.395533	-41.889769
1.300000	-18.431316	-47.120173	-0.225594	-137.828702	-0.225594	-137.828702	-18.430092	-47.120318
1.350000	-18.510263	-52.361057	-0.230197	-143.135697	-0.230197	-143.135697	-18.507716	-52.356231
1.400000	-18.636794	-57.605799	-0.234167	-148.448874	-0.234167	-148.448874	-18.633073	-57.597883
1.450000	-18.812674	-62.854215	-0.237537	-153.768967	-0.237537	-153.768967	-18.807983	-62.844886
1.500000	-19.042458	-68.105990	-0.240332	-159.096981	-0.240332	-159.096981	-19.037054	-68.096695
1.550000	-19.331540	-73.360338	-0.242592	-164.433920	-0.242592	-164.433920	-19.325722	-73.352181
1.600000	-19.685008	-78.615865	-0.244389	-169.780464	-0.244389	-169.780464	-19.679099	-78.609517
1.650000	-20.113403	-83.870297	-0.245779	-175.137965	-0.245779	-175.137965	-20.107760	-83.865955
1.700000	-20.624127	-89.120349	-0.246871	179.493332	-0.246871	179.493332	-20.619099	-89.117679
1.750000	-21.234781	-94.360191	-0.247750	174.111885	-0.247750	174.111885	-21.230733	-94.358225
1.800000	-21.960659	-99.582134	-0.248539	168.717638	-0.248539	168.717638	-21.957937	-99.579300
1.850000	-22.830241	-104.772215	-0.249362	163.309448	-0.249362	163.309448	-22.829187	-104.766102
1.900000	-23.879908	-109.908671	-0.250351	157.886985	-0.250351	157.886985	-23.880860	-109.895890
1.950000	-25.166877	-114.953277	-0.251644	152.449784	-0.251644	152.449784	-25.170202	-114.928975
2.000000	-26.786214	-119.825919	-0.253398	146.997197	-0.253398	146.997197	-26.792350	-119.782405
2.050000	-28.902319	-124.372100	-0.255735	141.529535	-0.255735	141.529535	-28.911948	-124.296489
2.100000	-31.872701	-128.083038	-0.258841	136.045806	-0.258841	136.045806	-31.887004	-127.944808
2.150000	-36.643689	-129.141690	-0.262809	130.546940	-0.262809	130.546940	-36.665021	-128.845630
2.200000	-47.255459	-98.709845	-0.267824	125.032174	-0.267824	125.032174	-47.208086	-97.497933
2.250000	-41.037765	11.599844	-0.273966	119.502364	-0.273966	119.502364	-40.974678	11.157522
2.300000	-33.731197	16.493513	-0.281373	113.957424	-0.281373	113.957424	-33.712772	16.259273
2.350000	-29.706708	13.745335	-0.290133	108.397817	-0.290133	108.397817	-29.698786	13.591498
2.400000	-26.924819	9.474782	-0.300303	102.824137	-0.300303	102.824137	-26.921445	9.364329
2.450000	-24.800138	4.639845	-0.311959	97.236649	-0.311959	97.236649	-24.799151	4.557566
2.500000	-23.085656	-0.468366	-0.325136	91.635810	-0.325136	91.635810	-23.085962	-0.530539
2.550000	-21.653800	-5.732170	-0.339844	86.022082	-0.339844	86.022082	-21.654741	-5.779425
2.600000	-20.429967	-11.095490	-0.356068	80.395881	-0.356068	80.395881	-20.431114	-11.131686
2.650000	-19.366623	-16.528227	-0.373770	74.757557	-0.373770	74.757557	-19.367695	-16.556510
2.700000	-18.431365	-22.012366	-0.392871	69.107492	-0.392871	69.107492	-18.432191	-22.035397
2.750000	-17.601378	-27.538109	-0.413311	63.445622	-0.413311	63.445622	-17.601872	-27.558235
2.800000	-16.859820	-33.098948	-0.435002	57.771781	-0.435002	57.771781	-16.859967	-33.118190
2.850000	-16.193147	-38.690001	-0.457808	52.086021	-0.457808	52.086021	-16.192991	-38.709995
2.900000	-15.591701	-44.309887	-0.481649	46.387422	-0.481649	46.387422	-15.591330	-44.331952
2.950000	-15.046928	-49.957104	-0.506392	40.675356	-0.506392	40.675356	-15.046463	-49.982148
3.000000	-14.551828	-55.631351	-0.531918	34.948825	-0.531918	34.948825	-14.551404	-55.659879
3.050000	-14.100414	-61.333035	-0.558117	29.206563	-0.558117	29.206563	-14.100167	-61.365158
3.100000	-13.687464	-67.063177	-0.584894	23.447005	-0.584894	23.447005	-13.687518	-67.098638
3.150000	-13.308447	-72.823620	-0.612181	17.668077	-0.612181	17.668077	-13.308898	-72.861840
3.200000	-12.958692	-78.615462	-0.639921	11.868199	-0.639921	11.868199	-12.959597	-78.655632
3.250000	-12.634551	-84.441957	-0.668115	6.044316	-0.668115	6.044316	-12.635926	-84.483078
3.300000	-12.331806	-90.304365	-0.696781	0.194745	-0.696781	0.194745	-12.333618	-90.345408
3.350000	-12.047196	-96.207741	-0.726023	-5.684976	-0.726023	-5.684976	-12.049363	-96.247646
3.400000	-11.776649	-102.152735	-0.755945	-11.596088	-0.755945	-11.596088	-11.779054	-102.190623
3.450000	-11.516790	-108.145146	-0.786781	-17.543727	-0.786781	-17.543727	-11.519278	-108.180295
3.500000	-11.263942	-114.186533	-0.818765	-23.529816	-0.818765	-23.529816	-11.266345	-114.218510
3.550000	-11.014577	-120.281738	-0.852260	-29.558857	-0.852260	-29.558857	-11.016722	-120.310386
3.600000	-10.765181	-126.434195	-0.887691	-35.634314	-0.887691	-35.634314	-10.766911	-126.459653
3.650000	-10.512566	-132.646755	-0.925537	-41.759222	-0.925537	-41.759222	-10.513759	-132.669405
3.700000	-10.253084	-138.924895	-0.966499	-47.938920	-0.966499	-47.938920	-10.253656	-138.945319
3.750000	-9.984611	-145.268573	-1.011122	-54.174246	-1.011122	-54.174246	-9.984538	-145.287414
3.800000	-9.703182	-151.685296	-1.060511	-60.472686	-1.060511	-60.472686	-9.702495	-151.703226
3.850000	-9.408055	-158.172604	-1.115307	-66.833332	-1.115307	-66.833332	-9.406837	-158.190125
3.900000	-9.096377	-164.735681	-1.176854	-73.262226	-1.176854	-73.262226	-9.094758	-164.753104
3.950000	-8.767885	-171.373084	-1.246181	-79.759760	-1.246181	-79.759760	-8.766024	-171.390425
4.000000	-8.421893	-178.085595	-1.324724	-86.328549	-1.324724	-86.328549	-8.419958	-178.102565
4.050000	-8.058554	175.127596	-1.414077	-92.970013	-1.414077	-92.970013	-8.056706	175.111582
4.100000	-7.679794	168.270689	-1.515612	-99.682298	-1.515612	-99.682298	-7.678158	168.256424
4.150000	-7.286162	161.344698	-1.631668	-106.466986	-1.631668	-106.466986	-7.284829	161.333144
4.200000	-6.881924	154.358620	-1.763409	-113.317244	-1.763409	-113.317244	-6.880926	154.350691
4.250000	-6.468562	147.316214	-1.913767	-120.231990	-1.913767	-120.231990	-6.467881	147.312756
4.300000	-6.051387	140.229822	-2.083795	-127.200331	-2.083795	-127.200331	-6.050962	140.231396
4.350000	-5.633383	133.108793	-2.276282	-134.214954	-2.276282	-134.214954	-5.633114	133.115664
4.400000	-5.219160	125.967410	-2.492887	-141.262573	-2.492887	-141.262573	-5.218935	125.979467
4.450000	-4.812947	118.821452	-2.735336	-148.328070	-2.735336	-148.328070	-4.812655	118.838222
4.500000	-4.418751	111.689249	-3.005345	-155.393480	-3.005345	-155.393480	-4.418303	111.709942
4.550000	-4.040300	104.588877	-3.303100	-162.439837	-3.303100	-162.439837	-4.039641	104.612533
4.600000	-3.680818	97.543887	-3.630239	-169.443639	-3.630239	-169.443639	-3.679932	97.569387
4.650000	-3.342523	90.571761	-3.985740	-176.385611	-3.985740	-176.385611	-3.341436	90.598076
4.700000	-3.027714	83.698209	-4.369797	176.760658	-4.369797	176.760658	-3.026491	83.724381
4.750000	-2.737035	76.939271	-4.780723	170.013073	-4.780723	170.013073	-2.735764	76.964590
4.800000	-2.471234	70.316176	-5.217075	163.394103	-5.217075	163.394103	-2.470016	70.340162
4.850000	-2.230056	63.844647	-5.676602	156.920942	-5.676602	156.920942	-2.228994	63.867083
4.900000	-2.012562	57.536023	-6.156937	150.606233	-6.156937	150.606233	-2.011745	57.556921
4.950000	-1.818174	51.406278	-6.655036	144.466931	-6.655036	144.466931	-1.817674	51.425843
5.000000	-1.644612	45.454106	-7.168708	138.502735	-7.168708	138.502735	-1.644475	45.472655
5.050000	-1.491386	39.696653	-7.693890	132.731308	-7.693890	132.731308	-1.491632	39.714596
5.100000	-1.355676	34.123251	-8.229114	127.142558	-8.229114	127.142558	-1.356301	34.140986
5.150000	-1.236493	28.742742	-8.770556	121.745545	-8.770556	121.745545	-1.237469	28.760656
5.200000	-1.131691	23.546968	-9.316534	116.532293	-9.316534	116.532293	-1.132977	23.565374
5.250000	-1.039831	18.534282	-9.864440	111.501183	-9.864440	111.501183	-1.041372	18.553418
5.300000	-0.959451	13.700448	-10.411999	106.647952	-10.411999	106.647952	-0.961186	13.720463
5.350000	-0.888955	9.035191	-10.958292	101.962286	-10.958292	101.962286	-0.890821	9.056146
5.400000	-0.827458	4.538798	-11.500157	97.444358	-11.500157	97.444358	-0.829393	4.560675
5.450000	-0.773432	0.195315	-12.038321	93.078222	-12.038321	93.078222	-0.775380	0.218030
5.500000	-0.726488	-3.988828	-12.568053	88.870176	-12.568053	88.870176	-0.728397	-3.965426
5.550000	-0.684953	-8.040787	-13.093684	84.793245	-13.093684	84.793245	-0.686782	-8.016866
5.600000	-0.648873	-11.947252	-13.608607	80.860655	-13.608607	80.860655	-0.650584	-11.923033
5.650000	-0.617006	-15.731749	-14.116900	77.049146	-14.116900	77.049146	-0.618576	-15.707442
5.700000	-0.588854	-19.400323	-14.617990	73.352848	-14.617990	73.352848	-0.590264	-19.376138
5.750000	-0.564340	-22.945433	-15.106810	69.779502	-15.106810	69.779502	-0.565578	-22.921601
5.800000	-0.542783	-26.382077	-15.585707	66.314486	-15.585707	66.314486	-0.543846	-26.358797
5.850000	-0.523705	-29.721080	-16.056157	62.947337	-16.056157	62.947337	-0.524594	-29.698525
5.900000	-0.506879	-32.965187	-16.517005	59.675724	-16.517005	59.675724	-0.507599	-32.943509
5.950000	-0.492271	-36.108704	-16.963834	56.505981	-16.963834	56.505981	-0.492833	-36.088048
6.000000	-0.479359	-39.170061	-17.401503	53.420040	-17.401503	53.420040	-0.479776	-39.150521
6.050000	-0.467966	-42.153405	-17.829796	50.414253	-17.829796	50.414253	-0.468252	-42.135055
6.100000	-0.458065	-45.055465	-18.245505	47.492745	-18.245505	47.492745	-0.458237	-45.038354
6.150000	-0.449460	-47.882576	-18.649317	44.649769	-18.649317	44.649769	-0.449536	-47.866728
6.200000	-0.441938	-50.643798	-19.043347	41.876609	-19.043347	41.876609	-0.441935	-50.629210
6.250000	-0.435401	-53.342360	-19.427429	39.170594	-19.427429	39.170594	-0.435334	-53.329012
6.300000	-0.429906	-55.971138	-19.796739	36.540409	-19.796739	36.540409	-0.429794	-55.958981
6.350000	-0.425211	-58.544028	-20.155922	33.971866	-20.155922	33.971866	-0.425067	-58.533005
6.400000	-0.421249	-61.063700	-20.504812	31.462821	-20.504812	31.462821	-0.421087	-61.053740
6.450000	-0.418012	-63.528981	-20.841446	29.015512	-20.841446	29.015512	-0.417844	-63.519996
6.500000	-0.415452	-65.941521	-21.165152	26.629041	-21.165152	26.629041	-0.415289	-65.933413
6.550000	-0.413459	-68.308681	-21.478175	24.295761	-21.478175	24.295761	-0.413309	-68.301351
6.600000	-0.411993	-70.632568	-21.780325	22.013937	-21.780325	22.013937	-0.411863	-70.625914
6.650000	-0.411089	-72.909134	-22.068230	19.789291	-22.068230	19.789291	-0.410985	-72.903037
6.700000	-0.410648	-75.145837	-22.344444	17.613559	-22.344444	17.613559	-0.410574	-75.140188
6.750000	-0.410631	-77.345504	-22.609292	15.483868	-22.609292	15.483868	-0.410588	-77.340200
6.800000	-0.411033	-79.508112	-22.861589	13.400808	-22.861589	13.400808	-0.411020	-79.503045
6.850000	-0.411854	-81.632998	-23.099732	11.365751	-23.099732	11.365751	-0.411872	-81.628060
6.900000	-0.413092	-83.720054	-23.322339	9.379340	-23.322339	9.379340	-0.413137	-83.715133
6.950000	-0.414537	-85.788292	-23.539470	7.417213	-23.539470	7.417213	-0.414608	-85.783334
7.000000	-0.416464	-87.812515	-23.734948	5.512146	-23.734948	5.512146	-0.416554	-87.807396
7.050000	-0.418601	-89.817565	-23.922706	3.631887	-23.922706	3.631887	-0.418707	-89.812237
7.100000	-0.421036	-91.795555	-24.096978	1.786635	-24.096978	1.786635	-0.421151	-91.789946
7.150000	-0.423829	-93.741146	-24.252867	-0.017256	-24.252867	-0.017256	-0.423946	-93.735184
7.200000	-0.426809	-95.670100	-24.399943	-1.800224	-24.399943	-1.800224	-0.426924	-95.663750
7.250000	-0.430100	-97.571571	-24.529712	-3.549055	-24.529712	-3.549055	-0.430205	-97.564783
7.300000	-0.433660	-99.449956	-24.643805	-5.270507	-24.643805	-5.270507	-0.433747	-99.442697
7.350000	-0.437390	-101.314016	-24.748161	-6.975284	-24.748161	-6.975284	-0.437455	-101.306270
7.400000	-0.441447	-103.151255	-24.831580	-8.650452	-24.831580	-8.650452	-0.441480	-103.143001
7.450000	-0.445706	-104.972836	-24.901740	-10.310112	-24.901740	-10.310112	-0.445703	-104.964072
7.500000	-0.450124	-106.782238	-24.961455	-11.957709	-24.961455	-11.957709	-0.450081	-106.772964
7.550000	-0.454910	-108.565246	-24.995162	-13.583338	-24.995162	-13.583338	-0.454818	-108.555481
7.600000	-0.459799	-110.341762	-25.021625	-15.204985	-25.021625	-15.204985	-0.459657	-110.331518
7.650000	-0.464971	-112.100172	-25.027568	-16.815523	-25.027568	-16.815523	-0.464774	-112.089480
7.700000	-0.470347	-113.847322	-25.018488	-18.422585	-25.018488	-18.422585	-0.470093	-113.836215
7.750000	-0.475907	-115.584396	-24.996010	-20.026537	-24.996010	-20.026537	-0.475594	-115.572904
7.800000	-0.481780	-117.307170	-24.950414	-21.632107	-24.950414	-21.632107	-0.481407	-117.295355
7.850000	-0.487761	-119.025362	-24.897298	-23.238701	-24.897298	-23.238701	-0.487329	-119.013246
7.900000	-0.494134	-120.729644	-24.815807	-24.855436	-24.815807	-24.855436	-0.493644	-120.717313
7.950000	-0.500653	-122.430326	-24.724782	-26.478385	-24.724782	-26.478385	-0.500107	-122.417814
8.000000	-0.507478	-124.123340	-24.613040	-28.114573	-24.613040	-28.114573	-0.506880	-124.110716
8.050000	-0.514595	-125.811920	-24.482744	-29.767203	-24.482744	-29.767203	-0.513949	-125.799246
8.100000	-0.521921	-127.497331	-24.340343	-31.431577	-24.340343	-31.431577	-0.521232	-127.484653
8.150000	-0.529727	-129.179662	-24.169097	-33.127294	-24.169097	-33.127294	-0.529004	-129.167070
8.200000	-0.537697	-130.861521	-23.991139	-34.833776	-23.991139	-34.833776	-0.536945	-130.849045
8.250000	-0.546257	-132.544056	-23.781347	-36.581154	-23.781347	-36.581154	-0.545487	-132.531789
8.300000	-0.555121	-134.228750	-23.559719	-38.349327	-23.559719	-38.349327	-0.554341	-134.216730
8.350000	-0.564487	-135.917044	-23.316386	-40.152160	-23.316386	-40.152160	-0.563708	-135.905333
8.400000	-0.574489	-137.612749	-23.047960	-41.996967	-23.047960	-41.996967	-0.573724	-137.601402
8.450000	-0.584857	-139.312643	-22.770229	-43.865499	-22.770229	-43.865499	-0.584112	-139.301692
8.500000	-0.596367	-141.029349	-22.450899	-45.803818	-22.450899	-45.803818	-0.595661	-141.018860
8.550000	-0.608287	-142.752420	-22.126804	-47.764837	-22.126804	-47.764837	-0.607627	-142.742409
8.600000	-0.621595	-144.498260	-21.762044	-49.801781	-21.762044	-49.801781	-0.620998	-144.488770
8.650000	-0.635882	-146.260650	-21.379746	-51.885403	-21.379746	-51.885403	-0.635359	-146.251693
8.700000	-0.651462	-148.044927	-20.972858	-54.030758	-20.972858	-54.030758	-0.651025	-148.036522
8.750000	-0.669237	-149.866086	-20.523974	-56.267240	-20.523974	-56.267240	-0.668900	-149.858232
8.800000	-0.688003	-151.703472	-20.072056	-58.543817	-20.072056	-58.543817	-0.687774	-151.696171
8.850000	-0.711152	-153.610952	-19.545273	-60.976411	-19.545273	-60.976411	-0.711048	-153.604174
8.900000	-0.735606	-155.537410	-19.024515	-63.448938	-19.024515	-63.448938	-0.735630	-155.531145
8.950000	-0.765323	-157.540736	-18.442373	-66.079584	-18.442373	-66.079584	-0.765486	-157.534934
9.000000	-0.800473	-159.617021	-17.817816	-68.854018	-17.817816	-68.854018	-0.800781	-159.611633
9.050000	-0.842769	-161.782196	-17.146711	-71.799341	-17.146711	-71.799341	-0.843224	-161.777157
9.100000	-0.894635	-164.056457	-16.424253	-74.950845	-16.424253	-74.950845	-0.895236	-164.051694
9.150000	-0.959801	-166.467781	-15.643142	-78.359140	-15.643142	-78.359140	-0.960544	-166.463208
9.200000	-1.046031	-169.070440	-14.781747	-82.126663	-14.781747	-82.126663	-1.046904	-169.065956
9.250000	-1.158376	-171.878667	-13.857669	-86.285550	-13.857669	-86.285550	-1.159362	-171.874190
9.300000	-1.313452	-174.973182	-12.846298	-91.006893	-12.846298	-91.006893	-1.314523	-174.968638
9.350000	-1.537612	-178.439207	-11.734434	-96.506606	-11.734434	-96.506606	-1.538726	-178.434582
9.400000	-1.872144	177.654740	-10.525398	-103.048307	-10.525398	-103.048307	-1.873247	177.659321
9.450000	-2.390391	173.283111	-9.231639	-111.011836	-9.231639	-111.011836	-2.391424	173.287242
9.500000	-3.246051	168.633747	-7.878824	-121.046196	-7.878824	-121.046196	-3.246989	168.636413
9.550000	-4.689571	164.868542	-6.575296	-133.790166	-6.575296	-133.790166	-4.690587	164.867939
9.600000	-7.000854	166.466289	-5.531681	-149.676825	-5.531681	-149.676825	-7.002762	166.461919
9.650000	-9.187743	-176.392932	-5.039875	-167.966112	-5.039875	-167.966112	-9.191222	-176.388100
9.700000	-8.071541	-153.748406	-5.261051	173.609889	-5.261051	173.609889	-8.073288	-153.731780
9.750000	-5.667917	-147.301296	-6.056490	157.380575	-6.056490	157.380575	-5.668372	-147.289962
9.800000	-4.009706	-149.339956	-7.142307	144.280149	-7.142307	144.280149	-4.010064	-149.332984
9.850000	-3.010211	-153.364061	-8.293686	133.929050	-8.293686	133.929050	-3.010682	-153.358298
9.900000	-2.402968	-157.514979	-9.397581	125.677770	-9.397581	125.677770	-2.403464	-157.508525
9.950000	-2.020876	-161.339193	-10.408919	118.936642	-10.408919	118.936642	-2.021245	-161.331023
10.000000	-1.766272	-164.807753	-11.329220	113.218689	-11.329220	113.218689	-1.766364	-164.797307
