! freq	dB(S11)	phase(S11)	dB(S12)	phase(S12)	
!     	dB(S21)	phase(S21)	dB(S22)	phase(S22)	
!S-par simulation data
#  GHz  S  DB  R 50
0.000000	-98.479177	0.000000	-0.000103	0.000000	-0.000103	0.000000	-98.479177	0.000000
0.050000	-46.166655	-90.841845	-0.000302	-0.944361	-0.000302	-0.944361	-46.166572	-90.842363
0.100000	-40.147621	-91.893759	-0.000890	-1.888518	-0.000890	-1.888518	-40.147540	-91.894793
0.150000	-36.628402	-92.898142	-0.001866	-2.832271	-0.001866	-2.832271	-36.628324	-92.899690
0.200000	-34.133210	-93.890518	-0.003206	-3.775455	-0.003206	-3.775455	-34.133134	-93.892579
0.250000	-32.199590	-94.877418	-0.004898	-4.717915	-0.004898	-4.717915	-32.199518	-94.879988
0.300000	-30.621532	-95.861032	-0.006922	-5.659526	-0.006922	-5.659526	-30.621466	-95.864107
0.350000	-29.289140	-96.842197	-0.009257	-6.600193	-0.009257	-6.600193	-29.289079	-96.845774
0.400000	-28.136805	-97.821253	-0.011882	-7.539850	-0.011882	-7.539850	-28.136751	-97.825328
0.450000	-27.122203	-98.798327	-0.014776	-8.478454	-0.014776	-8.478454	-27.122155	-98.802894
0.500000	-26.216428	-99.773442	-0.017919	-9.415988	-0.017919	-9.415988	-26.216387	-99.778496
0.550000	-25.398856	-100.746574	-0.021292	-10.352452	-0.021292	-10.352452	-25.398823	-100.752111
0.600000	-24.654252	-101.717676	-0.024880	-11.287860	-0.024880	-11.287860	-24.654226	-101.723691
0.650000	-23.971070	-102.686669	-0.028671	-12.222227	-0.028671	-12.222227	-23.971052	-102.693155
0.700000	-23.340307	-103.653494	-0.032652	-13.155583	-0.032652	-13.155583	-23.340296	-103.660448
0.750000	-22.754789	-104.618123	-0.036812	-14.087975	-0.036812	-14.087975	-22.754785	-104.625540
0.800000	-22.208751	-105.580512	-0.041141	-15.019438	-0.041141	-15.019438	-22.208755	-105.588389
0.850000	-21.697477	-106.540629	-0.045634	-15.950007	-0.045634	-15.950007	-21.697486	-106.548961
0.900000	-21.217051	-107.498450	-0.050286	-16.879711	-0.050286	-16.879711	-21.217067	-107.507235
0.950000	-20.764194	-108.453964	-0.055091	-17.808581	-0.055091	-17.808581	-20.764215	-108.463200
1.000000	-20.336126	-109.407171	-0.060048	-18.736642	-0.060048	-18.736642	-20.336152	-109.416856
1.050000	-19.930470	-110.358083	-0.065152	-19.663913	-0.065152	-19.663913	-19.930500	-110.368215
1.100000	-19.545181	-111.306721	-0.070401	-20.590413	-0.070401	-20.590413	-19.545215	-111.317302
1.150000	-19.178484	-112.253119	-0.075795	-21.516155	-0.075795	-21.516155	-19.178521	-112.264148
1.200000	-18.828828	-113.197319	-0.081330	-22.441150	-0.081330	-22.441150	-18.828867	-113.208797
1.250000	-18.494851	-114.139371	-0.087005	-23.365405	-0.087005	-23.365405	-18.494892	-114.151301
1.300000	-18.175399	-115.079292	-0.092822	-24.288910	-0.092822	-24.288910	-18.175440	-115.091675
1.350000	-17.869354	-116.017194	-0.098775	-25.211681	-0.098775	-25.211681	-17.869397	-116.030034
1.400000	-17.575767	-116.953149	-0.104864	-26.133721	-0.104864	-26.133721	-17.575810	-116.966449
1.450000	-17.293786	-117.887234	-0.111086	-27.055026	-0.111086	-27.055026	-17.293828	-117.900998
1.500000	-17.022647	-118.819529	-0.117439	-27.975596	-0.117439	-27.975596	-17.022689	-118.833761
1.550000	-16.761661	-119.750117	-0.123922	-28.895426	-0.123922	-28.895426	-16.761701	-119.764822
1.600000	-16.510204	-120.679082	-0.130532	-29.814512	-0.130532	-29.814512	-16.510243	-120.694265
1.650000	-16.267712	-121.606510	-0.137267	-30.732849	-0.137267	-30.732849	-16.267750	-121.622176
1.700000	-16.033671	-122.532486	-0.144124	-31.650431	-0.144124	-31.650431	-16.033706	-122.548639
1.750000	-15.807611	-123.457093	-0.151101	-32.567253	-0.151101	-32.567253	-15.807645	-123.473738
1.800000	-15.589105	-124.380414	-0.158195	-33.483310	-0.158195	-33.483310	-15.589137	-124.397556
1.850000	-15.377760	-125.302527	-0.165403	-34.398596	-0.165403	-34.398596	-15.377790	-125.320173
1.900000	-15.173235	-126.223500	-0.172723	-35.313097	-0.172723	-35.313097	-15.173264	-126.241652
1.950000	-14.975199	-127.143406	-0.180153	-36.226808	-0.180153	-36.226808	-14.975226	-127.162071
2.000000	-14.783325	-128.062328	-0.187687	-37.139733	-0.187687	-37.139733	-14.783351	-128.081509
2.050000	-14.597332	-128.980330	-0.195322	-38.051867	-0.195322	-38.051867	-14.597357	-129.000033
2.100000	-14.416958	-129.897474	-0.203056	-38.963208	-0.203056	-38.963208	-14.416982	-129.917702
2.150000	-14.241961	-130.813815	-0.210883	-39.873752	-0.210883	-39.873752	-14.241983	-130.834573
2.200000	-14.072115	-131.729406	-0.218802	-40.783497	-0.218802	-40.783497	-14.072136	-131.750697
2.250000	-13.907210	-132.644293	-0.226808	-41.692442	-0.226808	-41.692442	-13.907231	-132.666122
2.300000	-13.747052	-133.558521	-0.234897	-42.600584	-0.234897	-42.600584	-13.747073	-133.580890
2.350000	-13.591457	-134.472126	-0.243066	-43.507924	-0.243066	-43.507924	-13.591478	-134.495040
2.400000	-13.440254	-135.385146	-0.251310	-44.414463	-0.251310	-44.414463	-13.440275	-135.408607
2.450000	-13.293284	-136.297609	-0.259627	-45.320201	-0.259627	-45.320201	-13.293305	-136.321621
2.500000	-13.150395	-137.209544	-0.268012	-46.225141	-0.268012	-46.225141	-13.150417	-137.234110
2.550000	-13.011482	-138.120963	-0.276462	-47.129268	-0.276462	-47.129268	-13.011505	-138.146087
2.600000	-12.876376	-139.031901	-0.284973	-48.032603	-0.284973	-48.032603	-12.876399	-139.057585
2.650000	-12.744950	-139.942373	-0.293540	-48.935150	-0.293540	-48.935150	-12.744974	-139.968622
2.700000	-12.617086	-140.852397	-0.302159	-49.836914	-0.302159	-49.836914	-12.617111	-140.879213
2.750000	-12.492672	-141.761986	-0.310827	-50.737902	-0.310827	-50.737902	-12.492697	-141.789372
2.800000	-12.371599	-142.671152	-0.319540	-51.638120	-0.319540	-51.638120	-12.371626	-142.699112
2.850000	-12.253768	-143.579905	-0.328293	-52.537575	-0.328293	-52.537575	-12.253795	-143.608443
2.900000	-12.139082	-144.488256	-0.337082	-53.436275	-0.337082	-53.436275	-12.139110	-144.517374
2.950000	-12.027449	-145.396211	-0.345905	-54.334230	-0.345905	-54.334230	-12.027478	-145.425915
3.000000	-11.918783	-146.303780	-0.354757	-55.231449	-0.354757	-55.231449	-11.918812	-146.334073
3.050000	-11.812999	-147.210970	-0.363634	-56.127942	-0.363634	-56.127942	-11.813029	-147.241855
3.100000	-11.710018	-148.117787	-0.372533	-57.023720	-0.372533	-57.023720	-11.710049	-148.149271
3.150000	-11.609782	-149.024237	-0.381449	-57.918789	-0.381449	-57.918789	-11.609813	-149.056322
3.200000	-11.512217	-149.930325	-0.390380	-58.813160	-0.390380	-58.813160	-11.512248	-149.963017
3.250000	-11.417236	-150.836065	-0.399320	-59.706854	-0.399320	-59.706854	-11.417267	-150.869369
3.300000	-11.324773	-151.741465	-0.408268	-60.599885	-0.408268	-60.599885	-11.324804	-151.775385
3.350000	-11.234764	-152.646534	-0.417218	-61.492268	-0.417218	-61.492268	-11.234795	-152.681076
3.400000	-11.147147	-153.551283	-0.426168	-62.384018	-0.426168	-62.384018	-11.147178	-153.586452
3.450000	-11.061864	-154.455721	-0.435114	-63.275151	-0.435114	-63.275151	-11.061894	-154.491524
3.500000	-10.978857	-155.359862	-0.444053	-64.165682	-0.444053	-64.165682	-10.978887	-155.396304
3.550000	-10.898135	-156.263706	-0.452981	-65.055604	-0.452981	-65.055604	-10.898164	-156.300793
3.600000	-10.819504	-157.167294	-0.461896	-65.944991	-0.461896	-65.944991	-10.819532	-157.205032
3.650000	-10.742992	-158.070626	-0.470793	-66.833828	-0.470793	-66.833828	-10.743019	-158.109021
3.700000	-10.668551	-158.973717	-0.479671	-67.722134	-0.479671	-67.722134	-10.668577	-159.012776
3.750000	-10.596133	-159.876585	-0.488526	-68.609929	-0.488526	-68.609929	-10.596158	-159.916315
3.800000	-10.525754	-160.779241	-0.497353	-69.497210	-0.497353	-69.497210	-10.525777	-160.819648
3.850000	-10.457308	-161.681713	-0.506150	-70.384021	-0.506150	-70.384021	-10.457331	-161.722804
3.900000	-10.390754	-162.584022	-0.514915	-71.270382	-0.514915	-71.270382	-10.390775	-162.625804
3.950000	-10.326052	-163.486190	-0.523646	-72.156314	-0.523646	-72.156314	-10.326071	-163.528671
4.000000	-10.263161	-164.388239	-0.532339	-73.041838	-0.532339	-73.041838	-10.263179	-164.431425
4.050000	-10.202044	-165.290192	-0.540991	-73.926976	-0.540991	-73.926976	-10.202060	-165.334092
4.100000	-10.142665	-166.192075	-0.549601	-74.811750	-0.549601	-74.811750	-10.142680	-166.236696
4.150000	-10.084989	-167.093913	-0.558166	-75.696183	-0.558166	-75.696183	-10.085001	-167.139262
4.200000	-10.028981	-167.995732	-0.566683	-76.580297	-0.566683	-76.580297	-10.028991	-168.041817
4.250000	-9.974608	-168.897558	-0.575150	-77.464117	-0.575150	-77.464117	-9.974616	-168.944386
4.300000	-9.921838	-169.799419	-0.583565	-78.347664	-0.583565	-78.347664	-9.921845	-169.846999
4.350000	-9.870642	-170.701343	-0.591926	-79.230964	-0.591926	-79.230964	-9.870647	-170.749683
4.400000	-9.820988	-171.603359	-0.600230	-80.114040	-0.600230	-80.114040	-9.820991	-171.652467
4.450000	-9.772849	-172.505496	-0.608476	-80.996917	-0.608476	-80.996917	-9.772849	-172.555379
4.500000	-9.726196	-173.407784	-0.616663	-81.879619	-0.616663	-81.879619	-9.726194	-173.458451
4.550000	-9.681002	-174.310252	-0.624787	-82.762172	-0.624787	-82.762172	-9.680998	-174.361712
4.600000	-9.637242	-175.212931	-0.632848	-83.644601	-0.632848	-83.644601	-9.637235	-175.265191
4.650000	-9.594889	-176.115852	-0.640843	-84.526930	-0.640843	-84.526930	-9.594880	-176.168921
4.700000	-9.553920	-177.019044	-0.648772	-85.409186	-0.648772	-85.409186	-9.553909	-177.072931
4.750000	-9.514310	-177.922540	-0.656633	-86.291394	-0.656633	-86.291394	-9.514296	-177.977253
4.800000	-9.476037	-178.826369	-0.664424	-87.173581	-0.664424	-87.173581	-9.476020	-178.881918
4.850000	-9.439077	-179.730563	-0.672144	-88.055771	-0.672144	-88.055771	-9.439058	-179.786956
4.900000	-9.403411	179.364847	-0.679792	-88.937992	-0.679792	-88.937992	-9.403388	179.307602
4.950000	-9.369015	178.459831	-0.687367	-89.820270	-0.687367	-89.820270	-9.368990	178.401724
5.000000	-9.335870	177.554358	-0.694868	-90.702631	-0.694868	-90.702631	-9.335842	177.495380
5.050000	-9.304003	176.648375	-0.702290	-91.585108	-0.702290	-91.585108	-9.303972	176.588516
5.100000	-9.273346	175.741871	-0.709636	-92.467724	-0.709636	-92.467724	-9.273312	175.681122
5.150000	-9.243881	174.834817	-0.716906	-93.350505	-0.716906	-93.350505	-9.243844	174.773168
5.200000	-9.215589	173.927182	-0.724098	-94.233478	-0.724098	-94.233478	-9.215548	173.864624
5.250000	-9.188452	173.018938	-0.731212	-95.116671	-0.731212	-95.116671	-9.188407	172.955462
5.300000	-9.162452	172.110056	-0.738248	-96.000108	-0.738248	-96.000108	-9.162403	172.045651
5.350000	-9.137572	171.200506	-0.745204	-96.883819	-0.745204	-96.883819	-9.137519	171.135163
5.400000	-9.113796	170.290262	-0.752082	-97.767828	-0.752082	-97.767828	-9.113738	170.223970
5.450000	-9.091106	169.379296	-0.758880	-98.652164	-0.758880	-98.652164	-9.091044	169.312044
5.500000	-9.069487	168.467579	-0.765598	-99.536852	-0.765598	-99.536852	-9.069421	168.399359
5.550000	-9.048923	167.555087	-0.772237	-100.421920	-0.772237	-100.421920	-9.048852	167.485886
5.600000	-9.029399	166.641792	-0.778796	-101.307393	-0.778796	-101.307393	-9.029322	166.571601
5.650000	-9.010898	165.727670	-0.785276	-102.193299	-0.785276	-102.193299	-9.010816	165.656478
5.700000	-8.993407	164.812695	-0.791676	-103.079664	-0.791676	-103.079664	-8.993319	164.740490
5.750000	-8.976909	163.896842	-0.797996	-103.966515	-0.797996	-103.966515	-8.976816	163.823615
5.800000	-8.961392	162.980090	-0.804238	-104.853877	-0.804238	-104.853877	-8.961292	162.905828
5.850000	-8.946839	162.062413	-0.810402	-105.741777	-0.810402	-105.741777	-8.946733	161.987105
5.900000	-8.933238	161.143790	-0.816487	-106.630241	-0.816487	-106.630241	-8.933124	161.067425
5.950000	-8.920572	160.224199	-0.822495	-107.519294	-0.822495	-107.519294	-8.920452	160.146765
6.000000	-8.908830	159.303618	-0.828426	-108.408962	-0.828426	-108.408962	-8.908702	159.225103
6.050000	-8.897996	158.382027	-0.834281	-109.299272	-0.834281	-109.299272	-8.897861	158.302420
6.100000	-8.888058	157.459406	-0.840061	-110.190248	-0.840061	-110.190248	-8.887914	157.378694
6.150000	-8.879000	156.535736	-0.845766	-111.081915	-0.845766	-111.081915	-8.878847	156.453906
6.200000	-8.870809	155.610997	-0.851397	-111.974299	-0.851397	-111.974299	-8.870648	155.528038
6.250000	-8.863472	154.685172	-0.856956	-112.867424	-0.856956	-112.867424	-8.863302	154.601072
6.300000	-8.857011	153.758195	-0.862440	-113.761349	-0.862440	-113.761349	-8.856831	153.672939
6.350000	-8.851374	152.830095	-0.867854	-114.656067	-0.867854	-114.656067	-8.851184	152.743672
6.400000	-8.846549	151.900858	-0.873199	-115.551601	-0.873199	-115.551601	-8.846349	151.813254
6.450000	-8.842521	150.970467	-0.878476	-116.447976	-0.878476	-116.447976	-8.842311	150.881670
6.500000	-8.839277	150.038908	-0.883686	-117.345214	-0.883686	-117.345214	-8.839055	149.948904
6.550000	-8.836803	149.106167	-0.888832	-118.243339	-0.888832	-118.243339	-8.836570	149.014943
6.600000	-8.835084	148.172230	-0.893914	-119.142374	-0.893914	-119.142374	-8.834839	148.079772
6.650000	-8.834108	147.237084	-0.898934	-120.042342	-0.898934	-120.042342	-8.833850	147.143379
6.700000	-8.833859	146.300716	-0.903893	-120.943266	-0.903893	-120.943266	-8.833589	146.205752
6.750000	-8.834323	145.363116	-0.908794	-121.845166	-0.908794	-121.845166	-8.834040	145.266878
6.800000	-8.835486	144.424272	-0.913637	-122.748067	-0.913637	-122.748067	-8.835190	144.326746
6.850000	-8.837334	143.484173	-0.918425	-123.651987	-0.918425	-123.651987	-8.837024	143.385346
6.900000	-8.839852	142.542810	-0.923160	-124.556950	-0.923160	-124.556950	-8.839527	142.442668
6.950000	-8.843025	141.600173	-0.927843	-125.462975	-0.927843	-125.462975	-8.842685	141.498703
7.000000	-8.846838	140.656253	-0.932476	-126.370084	-0.932476	-126.370084	-8.846483	140.553442
7.050000	-8.851276	139.711043	-0.937061	-127.278296	-0.937061	-127.278296	-8.850906	139.606877
7.100000	-8.856324	138.764536	-0.941601	-128.187631	-0.941601	-128.187631	-8.855937	138.659000
7.150000	-8.861965	137.816723	-0.946097	-129.098109	-0.946097	-129.098109	-8.861563	137.709804
7.200000	-8.868186	136.867599	-0.950551	-130.009748	-0.950551	-130.009748	-8.867766	136.759284
7.250000	-8.874969	135.917159	-0.954966	-130.922568	-0.954966	-130.922568	-8.874532	135.807434
7.300000	-8.882298	134.965397	-0.959344	-131.836586	-0.959344	-131.836586	-8.881843	134.854249
7.350000	-8.890158	134.012309	-0.963687	-132.751821	-0.963687	-132.751821	-8.889685	133.899724
7.400000	-8.898531	133.057892	-0.967997	-133.668290	-0.967997	-133.668290	-8.898040	132.943857
7.450000	-8.907402	132.102142	-0.972277	-134.586010	-0.972277	-134.586010	-8.906891	131.986643
7.500000	-8.916752	131.145057	-0.976529	-135.504999	-0.976529	-135.504999	-8.916222	131.028082
7.550000	-8.926583	130.186576	-0.980754	-136.425328	-0.980754	-136.425328	-8.926033	130.068112
7.600000	-8.936859	129.226759	-0.984957	-137.346958	-0.984957	-137.346958	-8.936288	129.106792
7.650000	-8.947560	128.265603	-0.989139	-138.269906	-0.989139	-138.269906	-8.946968	128.144122
7.700000	-8.958669	127.303111	-0.993303	-139.194185	-0.993303	-139.194185	-8.958056	127.180103
7.750000	-8.970167	126.339283	-0.997452	-140.119811	-0.997452	-140.119811	-8.969533	126.214736
7.800000	-8.982037	125.374122	-1.001588	-141.046798	-1.001588	-141.046798	-8.981380	125.248024
7.850000	-8.994259	124.407630	-1.005714	-141.975159	-1.005714	-141.975159	-8.993580	124.279970
7.900000	-9.006815	123.439813	-1.009832	-142.904908	-1.009832	-142.904908	-9.006113	123.310579
7.950000	-9.019686	122.470674	-1.013945	-143.836058	-1.013945	-143.836058	-9.018959	122.339856
8.000000	-9.032851	121.500219	-1.018056	-144.768620	-1.018056	-144.768620	-9.032100	121.367807
8.050000	-9.046292	120.528456	-1.022167	-145.702608	-1.022167	-145.702608	-9.045516	120.394438
8.100000	-9.059988	119.555393	-1.026281	-146.638033	-1.026281	-146.638033	-9.059187	119.419760
8.150000	-9.073919	118.581038	-1.030401	-147.574905	-1.030401	-147.574905	-9.073093	118.443780
8.200000	-9.088065	117.605401	-1.034529	-148.513236	-1.034529	-148.513236	-9.087213	117.466509
8.250000	-9.102406	116.628493	-1.038669	-149.453035	-1.038669	-149.453035	-9.101528	116.487960
8.300000	-9.116920	115.650328	-1.042822	-150.394314	-1.042822	-150.394314	-9.116015	115.508144
8.350000	-9.131587	114.670918	-1.046992	-151.337080	-1.046992	-151.337080	-9.130654	114.527076
8.400000	-9.146385	113.690280	-1.051182	-152.281343	-1.051182	-152.281343	-9.145424	113.544771
8.450000	-9.161294	112.708428	-1.055393	-153.227111	-1.055393	-153.227111	-9.160304	112.561247
8.500000	-9.176290	111.725381	-1.059630	-154.174393	-1.059630	-154.174393	-9.175272	111.576521
8.550000	-9.191353	110.741158	-1.063894	-155.123197	-1.063894	-155.123197	-9.190305	110.590614
8.600000	-9.206461	109.755780	-1.068188	-156.073529	-1.068188	-156.073529	-9.205383	109.603546
8.650000	-9.221591	108.769269	-1.072516	-157.025396	-1.072516	-157.025396	-9.220483	108.615341
8.700000	-9.236722	107.781650	-1.076880	-157.978805	-1.076880	-157.978805	-9.235582	107.626024
8.750000	-9.251830	106.792947	-1.081282	-158.933762	-1.081282	-158.933762	-9.250659	106.635619
8.800000	-9.266889	105.803144	-1.085728	-159.890340	-1.085728	-159.890340	-9.265686	105.644112
8.850000	-9.281879	104.812318	-1.090218	-160.848477	-1.090218	-160.848477	-9.280643	104.651580
8.900000	-9.296777	103.820500	-1.094756	-161.808178	-1.094756	-161.808178	-9.295508	103.658053
8.950000	-9.311559	102.827723	-1.099343	-162.769446	-1.099343	-162.769446	-9.310257	102.663568
9.000000	-9.326204	101.834023	-1.103983	-163.732287	-1.103983	-163.732287	-9.324867	101.668159
9.050000	-9.340687	100.839437	-1.108679	-164.696704	-1.108679	-164.696704	-9.339316	100.671865
9.100000	-9.354987	99.844004	-1.113432	-165.662699	-1.113432	-165.662699	-9.353580	99.674726
9.150000	-9.369079	98.847767	-1.118246	-166.630276	-1.118246	-166.630276	-9.367637	98.676784
9.200000	-9.382942	97.850769	-1.123124	-167.599438	-1.123124	-167.599438	-9.381464	97.678083
9.250000	-9.396551	96.853055	-1.128068	-168.570185	-1.128068	-168.570185	-9.395037	96.678672
9.300000	-9.409884	95.854675	-1.133080	-169.542521	-1.133080	-169.542521	-9.408333	95.678599
9.350000	-9.422918	94.855680	-1.138163	-170.516446	-1.138163	-170.516446	-9.421330	94.677914
9.400000	-9.435629	93.856121	-1.143320	-171.491962	-1.143320	-171.491962	-9.434004	93.676673
9.450000	-9.447996	92.856055	-1.148554	-172.469070	-1.148554	-172.469070	-9.446333	92.674931
9.500000	-9.459996	91.855540	-1.153866	-173.447770	-1.153866	-173.447770	-9.458294	91.672747
9.550000	-9.471605	90.854635	-1.159260	-174.428062	-1.159260	-174.428062	-9.469865	90.670183
9.600000	-9.482802	89.853404	-1.164738	-175.409946	-1.164738	-175.409946	-9.481023	89.667300
9.650000	-9.493564	88.851912	-1.170303	-176.393422	-1.170303	-176.393422	-9.491746	88.664167
9.700000	-9.503870	87.850226	-1.175956	-177.378489	-1.175956	-177.378489	-9.502012	87.660850
9.750000	-9.513696	86.848416	-1.181700	-178.365147	-1.181700	-178.365147	-9.511799	86.657422
9.800000	-9.523023	85.846556	-1.187538	-179.353393	-1.187538	-179.353393	-9.521086	85.653955
9.850000	-9.531828	84.844721	-1.193472	179.656772	-1.193472	179.656772	-9.529852	84.650526
9.900000	-9.540090	83.842987	-1.199505	178.665352	-1.199505	178.665352	-9.538074	83.647213
9.950000	-9.547790	82.841436	-1.205638	177.672347	-1.205638	177.672347	-9.545734	82.644097
10.000000	-9.554905	81.840150	-1.211875	176.677760	-1.211875	176.677760	-9.552810	81.641261
