! freq	dB(S11)	phase(S11)	dB(S12)	phase(S12)	
!     	dB(S21)	phase(S21)	dB(S22)	phase(S22)	
!S-par simulation data
#  GHz  S  DB  R 50
0.000000	-77.649647	0.000000	-0.001139	0.000000	-0.001139	0.000000	-77.649647	0.000000
0.050000	-29.444771	-97.064336	-0.019026	-7.374129	-0.019026	-7.374129	-29.444752	-97.064787
0.100000	-23.573969	-104.676498	-0.043580	-14.640483	-0.043580	-14.640483	-23.573961	-104.677581
0.150000	-20.241665	-112.101097	-0.074872	-21.857814	-0.074872	-21.857814	-20.241642	-112.102643
0.200000	-17.976472	-119.368165	-0.112298	-29.017027	-0.112298	-29.017027	-17.976434	-119.370221
0.250000	-16.317046	-126.521080	-0.153626	-36.114700	-0.153626	-36.114700	-16.317003	-126.523716
0.300000	-15.060634	-133.583919	-0.196633	-43.150206	-0.196633	-43.150206	-15.060595	-133.587166
0.350000	-14.099584	-140.569869	-0.239109	-50.125479	-0.239109	-50.125479	-14.099552	-140.573737
0.400000	-13.369207	-147.488516	-0.278934	-57.045432	-0.278934	-57.045432	-13.369177	-147.493014
0.450000	-12.829565	-154.348563	-0.314148	-63.917223	-0.314148	-63.917223	-12.829531	-154.353722
0.500000	-12.454908	-161.159977	-0.343046	-70.750687	-0.343046	-70.750687	-12.454860	-161.165855
0.550000	-12.230844	-167.933884	-0.364175	-77.557816	-0.364175	-77.557816	-12.230772	-167.940573
0.600000	-12.146257	-174.683498	-0.376767	-84.353011	-0.376767	-84.353011	-12.146155	-174.691114
0.650000	-12.198134	178.578341	-0.380454	-91.151100	-0.380454	-91.151100	-12.197997	178.569662
0.700000	-12.389057	171.839369	-0.375404	-97.967139	-0.375404	-97.967139	-12.388885	171.829478
0.750000	-12.727551	165.089062	-0.362319	-104.815608	-0.362319	-104.815608	-12.727351	165.077802
0.800000	-13.232126	158.319711	-0.342312	-111.710708	-0.342312	-111.710708	-13.231910	158.306914
0.850000	-13.925224	151.529962	-0.317243	-118.662561	-0.317243	-118.662561	-13.925004	151.515448
0.900000	-14.845991	144.727187	-0.289193	-125.678990	-0.289193	-125.678990	-14.845781	144.710727
0.950000	-16.056454	137.934291	-0.260509	-132.764226	-0.260509	-132.764226	-16.056270	137.915547
1.000000	-17.660535	131.204628	-0.233664	-139.918446	-0.233664	-139.918446	-17.660388	131.182992
1.050000	-19.853967	124.672892	-0.211220	-147.138672	-0.211220	-147.138672	-19.853865	124.647041
1.100000	-23.052762	118.719379	-0.195340	-154.415041	-0.195340	-154.415041	-23.052730	118.685895
1.150000	-28.507446	115.117555	-0.187823	-161.735322	-0.187823	-161.735322	-28.507754	115.063115
1.200000	-43.577398	166.262683	-0.189909	-169.084382	-0.189909	-169.084382	-43.607504	166.142095
1.250000	-30.074110	-96.237388	-0.202166	-176.445302	-0.202166	-176.445302	-30.076465	-96.198864
1.300000	-23.743353	-98.826121	-0.224608	176.199714	-0.224608	176.199714	-23.744328	-98.812651
1.350000	-20.203569	-104.611877	-0.256112	168.867222	-0.256112	168.867222	-20.204219	-104.606550
1.400000	-17.807940	-111.123823	-0.295112	161.571263	-0.295112	161.571263	-17.808420	-111.122546
1.450000	-16.055733	-117.882171	-0.339520	154.322525	-0.339520	154.322525	-16.056078	-117.883468
1.500000	-14.727395	-124.727114	-0.386899	147.127615	-0.386899	147.127615	-14.727615	-124.730416
1.550000	-13.709952	-131.590838	-0.434587	139.989746	-0.434587	139.989746	-13.710052	-131.595991
1.600000	-12.932233	-138.442304	-0.479934	132.905295	-0.479934	132.905295	-12.932219	-138.449376
1.650000	-12.351497	-145.269577	-0.520517	125.867509	-0.520517	125.867509	-12.351384	-145.278766
1.700000	-11.940252	-152.071046	-0.554229	118.865938	-0.554229	118.865938	-11.940061	-152.082630
1.750000	-11.681172	-158.851552	-0.579394	111.887074	-0.579394	111.887074	-11.680931	-158.865866
1.800000	-11.567187	-165.619846	-0.594649	104.914915	-0.594649	104.914915	-11.566932	-165.637280
1.850000	-11.592152	-172.387141	-0.599613	97.931674	-0.599613	97.931674	-11.591920	-172.408132
1.900000	-11.758525	-179.164257	-0.594351	90.919416	-0.594351	90.919416	-11.758360	-179.189315
1.950000	-12.074981	174.039999	-0.579557	83.860539	-0.579557	83.860539	-12.074929	174.010248
2.000000	-12.557573	167.221392	-0.556545	76.738720	-0.556545	76.738720	-12.557681	167.186126
2.050000	-13.234564	160.383871	-0.527140	69.538560	-0.527140	69.538560	-13.234885	160.341911
2.100000	-14.144280	153.547127	-0.493877	62.250136	-0.493877	62.250136	-14.144877	153.496706
2.150000	-15.350299	146.758068	-0.459560	54.866952	-0.459560	54.866952	-15.351257	146.696312
2.200000	-16.958676	140.120337	-0.427200	47.387507	-0.427200	47.387507	-16.960147	140.042149
2.250000	-19.164454	133.877515	-0.399803	39.815764	-0.399803	39.815764	-19.166792	133.772735
2.300000	-22.391096	128.755372	-0.380208	32.160614	-0.380208	32.160614	-22.395458	128.599009
2.350000	-27.857479	128.222126	-0.370698	24.437040	-0.370698	24.437040	-27.870849	127.924131
2.400000	-38.452920	-177.191415	-0.372549	16.664714	-0.372549	16.664714	-38.590598	-177.462983
2.450000	-28.802125	-98.518825	-0.386479	8.863627	-0.386479	8.863627	-28.817252	-98.166318
2.500000	-22.890497	-97.366213	-0.411610	1.055079	-0.411610	1.055079	-22.894702	-97.187050
2.550000	-19.508727	-102.389504	-0.447131	-6.741146	-0.447131	-6.741146	-19.511089	-102.266428
2.600000	-17.228925	-108.679795	-0.489945	-14.511067	-0.489945	-14.511067	-17.230634	-108.585392
2.650000	-15.595523	-115.475114	-0.537344	-22.243520	-0.537344	-22.243520	-15.596910	-115.397579
2.700000	-14.397144	-122.480825	-0.585716	-29.935929	-0.585716	-29.935929	-14.398331	-122.414531
2.750000	-13.524950	-129.582338	-0.631471	-37.592346	-0.631471	-37.592346	-13.525994	-129.524127
2.800000	-12.919011	-136.728859	-0.671136	-45.223822	-0.671136	-45.223822	-12.919949	-136.676777
2.850000	-12.544355	-143.899622	-0.701739	-52.848573	-0.701739	-52.848573	-12.545216	-143.852368
2.900000	-12.380383	-151.089463	-0.721284	-60.489994	-0.721284	-60.489994	-12.381195	-151.046105
2.950000	-12.427760	-158.300550	-0.728352	-68.176027	-0.728352	-68.176027	-12.428552	-158.260322
3.000000	-12.689874	-165.533300	-0.723235	-75.934241	-0.723235	-75.934241	-12.690673	-165.495530
3.050000	-13.209984	-172.779829	-0.706245	-83.802640	-0.706245	-83.802640	-13.210821	-172.743773
3.100000	-14.020116	179.993654	-0.680605	-91.801645	-0.680605	-91.801645	-14.021020	-179.971185
3.150000	-15.221523	172.879448	-0.649539	-99.963639	-0.649539	-99.963639	-15.222521	172.914910
3.200000	-16.971119	166.108490	-0.617999	-108.304411	-0.617999	-108.304411	-16.972233	166.146209
3.250000	-19.599170	160.331101	-0.591548	-116.832201	-0.591548	-116.832201	-19.600379	160.375151
3.300000	-23.951597	158.155642	-0.576116	-125.544492	-0.576116	-125.544492	-23.952480	158.218333
3.350000	-32.812901	-177.491270	-0.576845	-134.421749	-0.576845	-134.421749	-32.802814	-177.360778
3.400000	-28.596010	-82.725396	-0.597804	-143.435919	-0.597804	-143.435919	-28.587530	-82.774816
3.450000	-21.586196	-75.203263	-0.640394	-152.547616	-0.640394	-152.547616	-21.584116	-75.227996
3.500000	-17.731160	-79.663066	-0.703287	-161.717116	-0.703287	-161.717116	-17.730370	-79.678062
3.550000	-15.224081	-86.508572	-0.782083	-170.910990	-0.782083	-170.910990	-15.223788	-86.519914
3.600000	-13.494878	-94.174962	-0.869573	179.889238	-0.869573	179.889238	-13.494842	-94.185394
3.650000	-12.305175	-102.182193	-0.956542	170.679343	-0.956542	170.679343	-12.305302	-102.193431
3.700000	-11.553057	-110.343778	-1.032473	161.424245	-1.032473	161.424245	-11.553319	-110.357305
3.750000	-11.197263	-118.573894	-1.087466	152.053393	-1.087466	152.053393	-11.197682	-118.591324
3.800000	-11.260974	-126.815905	-1.113578	142.452533	-1.113578	142.452533	-11.261628	-126.839458
3.850000	-11.836604	-134.946312	-1.108123	132.464973	-1.108123	132.464973	-11.837686	-134.979599
3.900000	-13.157325	-142.526430	-1.076843	121.887965	-1.076843	121.887965	-13.159355	-142.576511
3.950000	-15.804154	-147.707329	-1.039707	110.479202	-1.039707	110.479202	-15.809071	-147.791485
4.000000	-21.386660	-138.701999	-1.038557	98.000655	-1.038557	98.000655	-21.408647	-138.860651
4.050000	-22.283700	-59.571697	-1.143790	84.300602	-1.143790	84.300602	-22.314568	-59.365776
4.100000	-13.867829	-42.799512	-1.448337	69.482504	-1.448337	69.482504	-13.872353	-42.673860
4.150000	-9.032558	-50.644273	-2.040581	54.026367	-2.040581	54.026367	-9.033894	-50.561849
4.200000	-6.024532	-62.610714	-2.960598	38.739187	-2.960598	38.739187	-6.025047	-62.548109
4.250000	-4.095911	-75.016407	-4.172092	24.443545	-4.172092	24.443545	-4.096116	-74.964949
4.300000	-2.861554	-86.549858	-5.585344	11.669658	-5.585344	11.669658	-2.861612	-86.505509
4.350000	-2.067061	-96.793691	-7.104111	0.526765	-7.104111	0.526765	-2.067040	-96.754312
4.400000	-1.550201	-105.733562	-8.654396	-9.109532	-8.654396	-9.109532	-1.550135	-105.697865
4.450000	-1.209377	-113.505329	-10.183604	-17.448202	-10.183604	-17.448202	-1.209286	-113.472468
4.500000	-0.978892	-120.308831	-11.665447	-24.734033	-11.665447	-24.734033	-0.978790	-120.278228
4.550000	-0.817404	-126.347297	-13.097307	-31.199295	-13.097307	-31.199295	-0.817298	-126.318545
4.600000	-0.703250	-131.736427	-14.461205	-36.975423	-14.461205	-36.975423	-0.703146	-131.709207
4.650000	-0.620048	-136.608885	-15.762332	-42.208421	-15.762332	-42.208421	-0.619950	-136.582958
4.700000	-0.558386	-141.050654	-16.997964	-46.992679	-16.997964	-46.992679	-0.558296	-141.025830
4.750000	-0.510349	-145.173546	-18.197795	-51.447404	-18.197795	-51.447404	-0.510269	-145.149688
4.800000	-0.474229	-148.970785	-19.321270	-55.568272	-19.321270	-55.568272	-0.474159	-148.947760
4.850000	-0.445570	-152.530538	-20.401395	-59.447647	-20.401395	-59.447647	-0.445511	-152.508251
4.900000	-0.422558	-155.886214	-21.440731	-63.120795	-21.440731	-63.120795	-0.422510	-155.864589
4.950000	-0.403886	-159.065204	-22.441742	-66.616290	-22.441742	-66.616290	-0.403848	-159.044175
5.000000	-0.388596	-162.090151	-23.406752	-69.957420	-23.406752	-69.957420	-0.388568	-162.069663
5.050000	-0.376886	-164.928798	-24.283013	-73.112001	-24.283013	-73.112001	-0.376866	-164.908790
5.100000	-0.366213	-167.705766	-25.187061	-76.204455	-25.187061	-76.204455	-0.366201	-167.686218
5.150000	-0.357594	-170.359377	-26.039642	-79.172657	-26.039642	-79.172657	-0.357587	-170.340251
5.200000	-0.350438	-172.911650	-26.855669	-82.036924	-26.855669	-82.036924	-0.350436	-172.892915
5.250000	-0.344017	-175.413253	-27.685417	-84.849222	-27.685417	-84.849222	-0.344018	-175.394895
5.300000	-0.339207	-177.788331	-28.424384	-87.527280	-28.424384	-87.527280	-0.339209	-177.770314
5.350000	-0.334806	179.872080	-29.182098	-90.165623	-29.182098	-90.165623	-0.334808	179.889767
5.400000	-0.331218	177.603470	-29.903218	-92.724536	-29.903218	-92.724536	-0.331219	177.620848
5.450000	-0.328262	175.395131	-30.596874	-95.210699	-30.596874	-95.210699	-0.328259	175.412218
5.500000	-0.325621	173.216928	-31.300581	-97.660485	-31.300581	-97.660485	-0.325613	173.233732
5.550000	-0.323728	171.116064	-31.936844	-100.007100	-31.936844	-100.007100	-0.323715	171.132613
5.600000	-0.322038	169.037388	-32.586175	-102.320194	-32.586175	-102.320194	-0.322017	169.053689
5.650000	-0.320750	167.003086	-33.207773	-104.566245	-33.207773	-104.566245	-0.320721	167.019157
5.700000	-0.319792	165.007157	-33.807398	-106.745119	-33.807398	-106.745119	-0.319755	165.023013
5.750000	-0.318999	163.030414	-34.414094	-108.890404	-34.414094	-108.890404	-0.318953	163.046064
5.800000	-0.318618	161.103626	-34.967626	-110.932367	-34.967626	-110.932367	-0.318563	161.119093
5.850000	-0.318352	159.191325	-35.529767	-112.938396	-35.529767	-112.938396	-0.318289	159.206617
5.900000	-0.318318	157.308000	-36.068819	-114.872556	-36.068819	-114.872556	-0.318246	157.323132
5.950000	-0.318480	155.449924	-36.588229	-116.730905	-36.588229	-116.730905	-0.318401	155.464906
6.000000	-0.318741	153.604472	-37.111351	-118.551348	-37.111351	-118.551348	-0.318655	153.619312
6.050000	-0.319256	151.792031	-37.588695	-120.251320	-37.588695	-120.251320	-0.319165	151.806744
6.100000	-0.319845	149.989175	-38.069817	-121.908857	-38.069817	-121.908857	-0.319750	150.003763
6.150000	-0.320582	148.205487	-38.528503	-123.481525	-38.528503	-123.481525	-0.320485	148.219958
6.200000	-0.321450	146.438458	-38.966294	-124.965368	-38.966294	-124.965368	-0.321351	146.452816
6.250000	-0.322382	144.679760	-39.402924	-126.404799	-39.402924	-126.404799	-0.322284	144.694006
6.300000	-0.323490	142.942701	-39.794748	-127.707147	-39.794748	-127.707147	-0.323394	142.956838
6.350000	-0.324657	141.212544	-40.181444	-128.958058	-40.181444	-128.958058	-0.324563	141.226572
6.400000	-0.325941	139.496193	-40.536833	-130.106092	-40.536833	-130.106092	-0.325851	139.510110
6.450000	-0.327270	137.784622	-40.888201	-131.213329	-40.888201	-131.213329	-0.327185	137.798428
6.500000	-0.328732	136.087393	-41.194628	-132.198177	-41.194628	-132.198177	-0.328652	136.101085
6.550000	-0.330221	134.392729	-41.499818	-133.159309	-41.499818	-133.159309	-0.330147	134.406307
6.600000	-0.331846	132.710894	-41.751876	-134.001856	-41.751876	-134.001856	-0.331777	132.724355
6.650000	-0.333483	131.030062	-42.005390	-134.835440	-42.005390	-134.835440	-0.333420	131.043407
6.700000	-0.335259	129.360268	-42.197927	-135.570434	-42.197927	-135.570434	-0.335201	129.373498
6.750000	-0.337036	127.690475	-42.394828	-136.305428	-42.394828	-136.305428	-0.336982	127.703589
6.800000	-0.338956	126.029679	-42.523793	-136.980052	-42.523793	-136.980052	-0.338905	126.042683
6.850000	-0.340877	124.368883	-42.654702	-137.654676	-42.654702	-137.654676	-0.340829	124.381776
6.900000	-0.342924	122.713771	-42.723633	-138.324418	-42.723633	-138.324418	-0.342878	122.726566
6.950000	-0.344984	121.059177	-42.787275	-138.993717	-42.787275	-138.993717	-0.344938	121.071874
7.000000	-0.347157	119.407589	-42.795758	-139.705292	-42.795758	-139.705292	-0.347110	119.420202
7.050000	-0.349353	117.756601	-42.793156	-140.425323	-42.793156	-140.425323	-0.349305	117.769135
7.100000	-0.351651	116.106490	-42.742839	-141.220843	-42.742839	-141.220843	-0.351599	116.118961
7.150000	-0.353984	114.456671	-42.677055	-142.041527	-42.677055	-142.041527	-0.353928	114.469085
7.200000	-0.356410	112.806081	-42.571219	-142.954931	-42.571219	-142.954931	-0.356348	112.818456
7.250000	-0.358882	111.155106	-42.446694	-143.914697	-42.446694	-143.914697	-0.358814	111.167451
7.300000	-0.361439	109.502146	-42.289608	-144.969945	-42.289608	-144.969945	-0.361363	109.514478
7.350000	-0.364056	107.847768	-42.111309	-146.093394	-42.111309	-146.093394	-0.363972	107.860099
7.400000	-0.366751	106.190579	-41.907558	-147.304359	-41.907558	-147.304359	-0.366657	106.202924
7.450000	-0.369523	104.530581	-41.680190	-148.602839	-41.680190	-148.602839	-0.369418	104.542955
7.500000	-0.372364	102.867312	-41.434112	-149.974499	-41.434112	-149.974499	-0.372249	102.879728
7.550000	-0.375303	101.199465	-41.161544	-151.448611	-41.161544	-151.448611	-0.375176	101.211939
7.600000	-0.378305	99.528237	-40.876855	-152.978974	-40.876855	-152.978974	-0.378166	99.540777
7.650000	-0.381430	97.850244	-40.561781	-154.621839	-40.561781	-154.621839	-0.381278	97.862869
7.700000	-0.384608	96.169107	-40.241378	-156.304089	-40.241378	-156.304089	-0.384443	96.181822
7.750000	-0.387943	94.478538	-39.885180	-158.104497	-39.885180	-158.104497	-0.387765	94.491360
7.800000	-0.391319	92.785432	-39.531098	-159.929005	-39.531098	-159.929005	-0.391128	92.798363
7.850000	-0.394897	91.079637	-39.133816	-161.874012	-39.133816	-161.874012	-0.394692	91.092693
7.900000	-0.398500	89.372324	-38.747283	-163.830007	-38.747283	-163.830007	-0.398281	89.385507
7.950000	-0.402365	87.648321	-38.307635	-165.906879	-38.307635	-165.906879	-0.402131	87.661640
8.000000	-0.406231	85.924317	-37.889172	-167.983751	-37.889172	-167.983751	-0.405983	85.937774
8.050000	-0.410463	84.177273	-37.398984	-170.187720	-37.398984	-170.187720	-0.410200	84.190873
8.100000	-0.414697	82.430229	-36.934989	-172.391689	-36.934989	-172.391689	-0.414420	82.443973
8.150000	-0.419263	80.663080	-36.418373	-174.680646	-36.418373	-174.680646	-0.418973	80.676966
8.200000	-0.423985	78.886693	-35.897893	-177.008652	-35.897893	-177.008652	-0.423680	78.900722
8.250000	-0.428944	77.096939	-35.357905	-179.380704	-35.357905	-179.380704	-0.428625	77.111108
8.300000	-0.434306	75.284462	-34.771633	178.172364	-34.771633	178.172364	-0.433972	75.298765
8.350000	-0.439720	73.469475	-34.213566	175.718734	-34.213566	175.718734	-0.439372	73.483911
8.400000	-0.445961	71.611812	-33.548360	173.151231	-33.548360	173.151231	-0.445599	71.626366
8.450000	-0.452206	69.754148	-32.930495	170.583728	-32.930495	170.583728	-0.451830	69.768821
8.500000	-0.459108	67.865725	-32.258753	167.944847	-32.258753	167.944847	-0.458718	67.880503
8.550000	-0.466689	65.947239	-31.545971	165.239907	-31.545971	165.239907	-0.466286	65.962113
8.600000	-0.475005	63.998654	-30.800832	162.472572	-30.800832	162.472572	-0.474588	64.013611
8.650000	-0.484206	62.016024	-30.021350	159.637179	-30.021350	159.637179	-0.483776	62.031053
8.700000	-0.494487	59.994649	-29.205425	156.726512	-29.205425	156.726512	-0.494045	60.009736
8.750000	-0.506199	57.925934	-28.343281	153.725939	-28.343281	153.725939	-0.505744	57.941066
8.800000	-0.519960	55.796050	-27.416919	150.611177	-27.416919	150.611177	-0.519493	55.811211
8.850000	-0.536174	53.600651	-26.437577	147.375145	-26.437577	147.375145	-0.535695	53.615825
8.900000	-0.555670	51.326607	-25.399804	143.993819	-25.399804	143.993819	-0.555180	51.341779
8.950000	-0.579649	48.956925	-24.297353	140.435392	-24.297353	140.435392	-0.579149	48.972077
9.000000	-0.609886	46.469366	-23.123172	136.657315	-23.123172	136.657315	-0.609378	46.484480
9.050000	-0.649045	43.834593	-21.869561	132.602165	-21.869561	132.602165	-0.648528	43.849648
9.100000	-0.701126	41.013779	-20.528700	128.192142	-20.528700	128.192142	-0.700603	41.028749
9.150000	-0.778739	37.891449	-19.017000	123.191243	-19.017000	123.191243	-0.778214	37.906295
9.200000	-0.891615	34.439693	-17.398521	117.516970	-17.398521	117.516970	-0.891092	34.454366
9.250000	-1.070629	30.497822	-15.613389	110.780706	-15.613389	110.780706	-1.070117	30.512242
9.300000	-1.371216	25.909607	-13.654041	102.473877	-13.654041	102.473877	-1.370731	25.923638
9.350000	-1.929596	20.532412	-11.501561	91.598673	-11.501561	91.598673	-1.929180	20.545788
9.400000	-3.018329	14.908030	-9.276636	76.842890	-9.276636	76.842890	-3.018100	14.920296
9.450000	-5.104562	12.938666	-7.306763	56.683149	-7.306763	56.683149	-5.104930	12.949837
9.500000	-7.376361	26.923457	-6.237654	31.952804	-6.237654	31.952804	-7.377828	26.941043
9.550000	-6.268934	46.184651	-6.399678	7.850737	-6.399678	7.850737	-6.269477	46.212047
9.600000	-4.259427	49.108207	-7.307333	-11.238774	-7.307333	-11.238774	-4.259009	49.135243
9.650000	-3.058050	45.766627	-8.366680	-25.350384	-8.366680	-25.350384	-3.057250	45.792285
9.700000	-2.415204	41.422807	-9.295892	-35.941947	-9.295892	-35.941947	-2.414220	41.447796
9.750000	-2.049603	37.214546	-10.043426	-44.489320	-10.043426	-44.489320	-2.048494	37.239403
9.800000	-1.849381	33.309906	-10.584795	-51.662919	-10.584795	-51.662919	-1.848162	33.335035
9.850000	-1.740834	29.639337	-10.954099	-58.065070	-10.954099	-58.065070	-1.739505	29.665001
9.900000	-1.694445	26.129543	-11.169151	-64.003610	-11.169151	-64.003610	-1.693001	26.155930
9.950000	-1.695221	22.714882	-11.245884	-69.693971	-11.245884	-69.693971	-1.693659	22.742118
10.000000	-1.736537	19.340886	-11.197569	-75.298841	-11.197569	-75.298841	-1.734863	19.369031
