! freq	dB(S11)	phase(S11)	dB(S12)	phase(S12)	
!     	dB(S21)	phase(S21)	dB(S22)	phase(S22)	
!S-par simulation data
#  GHz  S  DB  R 50
0.000000	-85.148282	0.000000	-0.000480	0.000000	-0.000480	0.000000	-85.148282	0.000000
0.050000	-57.723977	-77.398529	-0.002004	-1.757883	-0.002004	-1.757883	-57.757375	-93.451020
0.100000	-51.542740	-79.246648	-0.005438	-3.504553	-0.005438	-3.504553	-51.747274	-100.707479
0.150000	-47.876279	-78.060741	-0.009098	-5.240722	-0.009098	-5.240722	-48.223444	-107.406471
0.200000	-45.201554	-76.220175	-0.012298	-6.971898	-0.012298	-6.971898	-45.682242	-114.283658
0.250000	-43.050096	-74.231733	-0.014968	-8.701853	-0.014968	-8.701853	-43.608358	-121.376351
0.300000	-41.218908	-72.289259	-0.017240	-10.432473	-0.017240	-10.432473	-41.765943	-128.340708
0.350000	-39.607904	-70.474984	-0.019266	-12.164399	-0.019266	-12.164399	-40.077136	-134.836632
0.400000	-38.155983	-68.830120	-0.021148	-13.897828	-0.021148	-13.897828	-38.519519	-140.753087
0.450000	-36.821711	-67.383317	-0.022964	-15.632861	-0.022964	-15.632861	-37.078357	-146.130824
0.500000	-35.586176	-66.131972	-0.024775	-17.369412	-0.024775	-17.369412	-35.748213	-151.102707
0.550000	-34.432400	-65.076044	-0.026624	-19.107480	-0.026624	-19.107480	-34.513993	-155.753100
0.600000	-33.344937	-64.220648	-0.028551	-20.847157	-0.028551	-20.847157	-33.358679	-160.131957
0.650000	-32.317619	-63.552520	-0.030581	-22.588425	-0.030581	-22.588425	-32.274417	-164.292534
0.700000	-31.343561	-63.062194	-0.032739	-24.331317	-0.032739	-24.331317	-31.252751	-168.266996
0.750000	-30.414537	-62.744705	-0.035049	-26.075949	-0.035049	-26.075949	-30.284591	-172.073440
0.800000	-29.525296	-62.584559	-0.037534	-27.822392	-0.037534	-27.822392	-29.364500	-175.731652
0.850000	-28.673220	-62.557518	-0.040206	-29.570655	-0.040206	-29.570655	-28.489480	-179.262086
0.900000	-27.853142	-62.648269	-0.043091	-31.320898	-0.043091	-31.320898	-27.653555	177.327246
0.950000	-27.063926	-62.837360	-0.046208	-33.073180	-0.046208	-33.073180	-26.853963	174.023061
1.000000	-26.304269	-63.113446	-0.049578	-34.827600	-0.049578	-34.827600	-26.087625	170.815567
1.050000	-25.573414	-63.469175	-0.053219	-36.584223	-0.053219	-36.584223	-25.352320	167.694914
1.100000	-24.870048	-63.900520	-0.057151	-38.343130	-0.057151	-38.343130	-24.645808	164.653103
1.150000	-24.192698	-64.404141	-0.061396	-40.104396	-0.061396	-40.104396	-23.966104	161.682998
1.200000	-23.539840	-64.976586	-0.065977	-41.868096	-0.065977	-41.868096	-23.311438	158.778218
1.250000	-22.909997	-65.614141	-0.070916	-43.634297	-0.070916	-43.634297	-22.680222	155.933050
1.300000	-22.301559	-66.313565	-0.076242	-45.403090	-0.076242	-45.403090	-22.070801	153.142910
1.350000	-21.713515	-67.070290	-0.081976	-47.174503	-0.081976	-47.174503	-21.482136	150.402568
1.400000	-21.144702	-67.880588	-0.088143	-48.948585	-0.088143	-48.948585	-20.913045	147.707908
1.450000	-20.594064	-68.740924	-0.094771	-50.725376	-0.094771	-50.725376	-20.362449	145.055225
1.500000	-20.060639	-69.647997	-0.101886	-52.504909	-0.101886	-52.504909	-19.829363	142.441184
1.550000	-19.543549	-70.598748	-0.109516	-54.287206	-0.109516	-54.287206	-19.312886	139.862779
1.600000	-19.041885	-71.590666	-0.117695	-56.072303	-0.117695	-56.072303	-18.812082	137.317542
1.650000	-18.555001	-72.620903	-0.126450	-57.860191	-0.126450	-57.860191	-18.326278	134.802818
1.700000	-18.082304	-73.686839	-0.135807	-59.650841	-0.135807	-59.650841	-17.854850	132.316208
1.750000	-17.623019	-74.786733	-0.145804	-61.444274	-0.145804	-61.444274	-17.397001	129.856063
1.800000	-17.176684	-75.918239	-0.156465	-63.240432	-0.156465	-63.240432	-16.952240	127.420318
1.850000	-16.742766	-77.079508	-0.167823	-65.039275	-0.167823	-65.039275	-16.520011	125.007345
1.900000	-16.320770	-78.268829	-0.179907	-66.840749	-0.179907	-66.840749	-16.099795	122.615670
1.950000	-15.910237	-79.484619	-0.192750	-68.644787	-0.192750	-68.644787	-15.691112	120.243961
2.000000	-15.510740	-80.725407	-0.206380	-70.451313	-0.206380	-70.451313	-15.293516	117.891014
2.050000	-15.121881	-81.989827	-0.220830	-72.260235	-0.220830	-72.260235	-14.906591	115.555742
2.100000	-14.743259	-83.276701	-0.236133	-74.071461	-0.236133	-74.071461	-14.529922	113.237241
2.150000	-14.374509	-84.584912	-0.252324	-75.884884	-0.252324	-75.884884	-14.163126	110.934688
2.200000	-14.015369	-85.913123	-0.269423	-77.700352	-0.269423	-77.700352	-13.805929	108.647132
2.250000	-13.665534	-87.260276	-0.287460	-79.517724	-0.287460	-79.517724	-13.458012	106.373867
2.300000	-13.324717	-88.625373	-0.306460	-81.336849	-0.306460	-81.336849	-13.119080	104.114261
2.350000	-12.992650	-90.007465	-0.326452	-83.157562	-0.326452	-83.157562	-12.788853	101.867752
2.400000	-12.669078	-91.405652	-0.347459	-84.979685	-0.347459	-84.979685	-12.467070	99.633842
2.450000	-12.353762	-92.819073	-0.369507	-86.803033	-0.369507	-86.803033	-12.153483	97.412094
2.500000	-12.046476	-94.246906	-0.392617	-88.627408	-0.392617	-88.627408	-11.847863	95.202125
2.550000	-11.746969	-95.688550	-0.416827	-90.452610	-0.416827	-90.452610	-11.549953	93.003765
2.600000	-11.455084	-97.143038	-0.442140	-92.278406	-0.442140	-92.278406	-11.259592	90.816561
2.650000	-11.170626	-98.609644	-0.468576	-94.104570	-0.468576	-94.104570	-10.976583	88.640276
2.700000	-10.893410	-100.087664	-0.496150	-95.930867	-0.496150	-95.930867	-10.700737	86.474712
2.750000	-10.623259	-101.576419	-0.524876	-97.757054	-0.524876	-97.757054	-10.431879	84.319708
2.800000	-10.360006	-103.075253	-0.554768	-99.582882	-0.554768	-99.582882	-10.169838	82.175141
2.850000	-10.103487	-104.583527	-0.585835	-101.408095	-0.585835	-101.408095	-9.914453	80.040916
2.900000	-9.853547	-106.100625	-0.618087	-103.232434	-0.618087	-103.232434	-9.665568	77.916971
2.950000	-9.610034	-107.626020	-0.651539	-105.055619	-0.651539	-105.055619	-9.423033	75.803367
3.000000	-9.372808	-109.159077	-0.686191	-106.877382	-0.686191	-106.877382	-9.186712	73.700043
3.050000	-9.141734	-110.699192	-0.722039	-108.697457	-0.722039	-108.697457	-8.956468	71.606962
3.100000	-8.916675	-112.245814	-0.759084	-110.515571	-0.759084	-110.515571	-8.732168	69.524156
3.150000	-8.697500	-113.798409	-0.797323	-112.331450	-0.797323	-112.331450	-8.513685	67.451674
3.200000	-8.484079	-115.356458	-0.836752	-114.144819	-0.836752	-114.144819	-8.300892	65.389583
3.250000	-8.276289	-116.919456	-0.877364	-115.955407	-0.877364	-115.955407	-8.093667	63.337964
3.300000	-8.074007	-118.486914	-0.919150	-117.762941	-0.919150	-117.762941	-7.891893	61.296908
3.350000	-7.877145	-120.058477	-0.962131	-119.567032	-0.962131	-119.567032	-7.695484	59.266884
3.400000	-7.685541	-121.633463	-1.006239	-121.367604	-1.006239	-121.367604	-7.504281	57.247398
3.450000	-7.499097	-123.211519	-1.051483	-123.164321	-1.051483	-123.164321	-7.318191	55.238814
3.500000	-7.317701	-124.792216	-1.097844	-124.956926	-1.097844	-124.956926	-7.137105	53.241257
3.550000	-7.141243	-126.375138	-1.145304	-126.745170	-1.145304	-126.745170	-6.960915	51.254857
3.600000	-6.969614	-127.959885	-1.193842	-128.528807	-1.193842	-128.528807	-6.789517	49.279746
3.650000	-6.802707	-129.546073	-1.243435	-130.307600	-1.243435	-130.307600	-6.622806	47.316057
3.700000	-6.640417	-131.133331	-1.294060	-132.081319	-1.294060	-132.081319	-6.460681	45.363924
3.750000	-6.482641	-132.721305	-1.345691	-133.849743	-1.345691	-133.849743	-6.303040	43.423479
3.800000	-6.329312	-134.309655	-1.398313	-135.612533	-1.398313	-135.612533	-6.149820	41.495112
3.850000	-6.180296	-135.898044	-1.451884	-137.369601	-1.451884	-137.369601	-6.000890	39.578695
3.900000	-6.035493	-137.486164	-1.506372	-139.120753	-1.506372	-139.120753	-5.856151	37.674352
3.950000	-5.894804	-139.073723	-1.561747	-140.865805	-1.561747	-140.865805	-5.715507	35.782199
4.000000	-5.758133	-140.660445	-1.617976	-142.604581	-1.617976	-142.604581	-5.578864	33.902348
4.050000	-5.625383	-142.246067	-1.675027	-144.336919	-1.675027	-144.336919	-5.446127	32.034904
4.100000	-5.496460	-143.830344	-1.732864	-146.062663	-1.732864	-146.062663	-5.317203	30.179963
4.150000	-5.371270	-145.413045	-1.791454	-147.781672	-1.791454	-147.781672	-5.192001	28.337617
4.200000	-5.249723	-146.993954	-1.850760	-149.493813	-1.850760	-149.493813	-5.070430	26.507947
4.250000	-5.131728	-148.572869	-1.910747	-151.198964	-1.910747	-151.198964	-4.952401	24.691026
4.300000	-5.017195	-150.149605	-1.971377	-152.897015	-1.971377	-152.897015	-4.837827	22.886919
4.350000	-4.906036	-151.723990	-2.032614	-154.587865	-2.032614	-154.587865	-4.726620	21.095681
4.400000	-4.798187	-153.295835	-2.094421	-156.271345	-2.094421	-156.271345	-4.618715	19.317500
4.450000	-4.693560	-154.864994	-2.156760	-157.947373	-2.156760	-157.947373	-4.514028	17.552414
4.500000	-4.592053	-156.431363	-2.219591	-159.615961	-2.219591	-159.615961	-4.412455	15.800309
4.550000	-4.493582	-157.994826	-2.282877	-161.277050	-2.282877	-161.277050	-4.313915	14.061203
4.600000	-4.398067	-159.555280	-2.346581	-162.930593	-2.346581	-162.930593	-4.218328	12.335104
4.650000	-4.305427	-161.112633	-2.410665	-164.576553	-2.410665	-164.576553	-4.125613	10.622012
4.700000	-4.215585	-162.666806	-2.475091	-166.214899	-2.475091	-166.214899	-4.035695	8.921918
4.750000	-4.128464	-164.217733	-2.539824	-167.845613	-2.539824	-167.845613	-3.948498	7.234802
4.800000	-4.043989	-165.765357	-2.604827	-169.468685	-2.604827	-169.468685	-3.863946	5.560639
4.850000	-3.962086	-167.309633	-2.670063	-171.084112	-2.670063	-171.084112	-3.781968	3.899393
4.900000	-3.882684	-168.850527	-2.735497	-172.691901	-2.735497	-172.691901	-3.702492	2.251021
4.950000	-3.805710	-170.388013	-2.801094	-174.292066	-2.801094	-174.292066	-3.625449	0.615472
5.000000	-3.731098	-171.922077	-2.866820	-175.884631	-2.866820	-175.884631	-3.550770	-1.007311
5.050000	-3.658813	-173.452639	-2.932630	-177.469460	-2.932630	-177.469460	-3.478425	-2.617121
5.100000	-3.588754	-174.979775	-2.998501	-179.046755	-2.998501	-179.046755	-3.408312	-4.214306
5.150000	-3.520856	-176.503499	-3.064398	179.383439	-3.064398	179.383439	-3.340367	-5.798946
5.200000	-3.455055	-178.023829	-3.130291	177.821072	-3.130291	177.821072	-3.274530	-7.371125
5.250000	-3.391291	-179.540792	-3.196148	176.266089	-3.196148	176.266089	-3.210739	-8.930934
5.300000	-3.329502	178.945577	-3.261939	174.718427	-3.261939	174.718427	-3.148937	-10.478467
5.350000	-3.269631	177.435239	-3.327634	173.178019	-3.327634	173.178019	-3.089066	-12.013827
5.400000	-3.211620	175.928145	-3.393204	171.644794	-3.393204	171.644794	-3.031072	-13.537116
5.450000	-3.155413	174.424245	-3.458622	170.118673	-3.458622	170.118673	-2.974899	-15.048445
5.500000	-3.100956	172.923480	-3.523860	168.599577	-3.523860	168.599577	-2.920497	-16.547927
5.550000	-3.048197	171.425786	-3.588891	167.087418	-3.588891	167.087418	-2.867814	-18.035679
5.600000	-2.997084	169.931098	-3.653691	165.582107	-3.653691	165.582107	-2.816801	-19.511819
5.650000	-2.947580	168.439373	-3.718225	164.083624	-3.718225	164.083624	-2.767423	-20.976348
5.700000	-2.899637	166.950533	-3.782470	162.591868	-3.782470	162.591868	-2.719635	-22.429395
5.750000	-2.853191	165.464466	-3.846409	161.106667	-3.846409	161.106667	-2.673376	-23.871214
5.800000	-2.808199	163.981091	-3.910022	159.627916	-3.910022	159.627916	-2.628602	-25.301933
5.850000	-2.764614	162.500320	-3.973286	158.155512	-3.973286	158.155512	-2.585271	-26.721686
5.900000	-2.722394	161.022065	-4.036180	156.689345	-4.036180	156.689345	-2.543342	-28.130605
5.950000	-2.681496	159.546235	-4.098684	155.229306	-4.098684	155.229306	-2.502776	-29.528825
6.000000	-2.641879	158.072738	-4.160779	153.775282	-4.160779	153.775282	-2.463533	-30.916483
6.050000	-2.603504	156.601477	-4.222447	152.327161	-4.222447	152.327161	-2.425577	-32.293715
6.100000	-2.566331	155.132358	-4.283670	150.884825	-4.283670	150.884825	-2.388871	-33.660659
6.150000	-2.530325	153.665282	-4.344430	149.448159	-4.344430	149.448159	-2.353379	-35.017454
6.200000	-2.495448	152.200151	-4.404711	148.017043	-4.404711	148.017043	-2.319069	-36.364238
6.250000	-2.461665	150.736864	-4.464497	146.591359	-4.464497	146.591359	-2.285908	-37.701152
6.300000	-2.428972	149.275376	-4.523744	145.171156	-4.523744	145.171156	-2.253894	-39.028021
6.350000	-2.397304	147.815525	-4.582465	143.756135	-4.582465	143.756135	-2.222964	-40.345307
6.400000	-2.366630	146.357210	-4.640648	142.346174	-4.640648	142.346174	-2.193089	-41.653152
6.450000	-2.336918	144.900330	-4.698279	140.941150	-4.698279	140.941150	-2.164239	-42.951693
6.500000	-2.308139	143.444784	-4.755345	139.540941	-4.755345	139.540941	-2.136386	-44.241072
6.550000	-2.280264	141.990473	-4.811834	138.145425	-4.811834	138.145425	-2.109504	-45.521426
6.600000	-2.253265	140.537296	-4.867735	136.754477	-4.867735	136.754477	-2.083565	-46.792895
6.650000	-2.227114	139.085154	-4.923037	135.367976	-4.923037	135.367976	-2.058545	-48.055618
6.700000	-2.201785	137.633950	-4.977728	133.985798	-4.977728	133.985798	-2.034419	-49.309733
6.750000	-2.177253	136.183585	-5.031799	132.607822	-5.031799	132.607822	-2.011163	-50.555378
6.800000	-2.153494	134.733963	-5.085240	131.233924	-5.085240	131.233924	-1.988754	-51.792691
6.850000	-2.130484	133.284990	-5.138042	129.863985	-5.138042	129.863985	-1.967169	-53.021808
6.900000	-2.108200	131.836573	-5.190196	128.497882	-5.190196	128.497882	-1.946387	-54.242866
6.950000	-2.086619	130.388620	-5.241693	127.135497	-5.241693	127.135497	-1.926388	-55.456001
7.000000	-2.065722	128.941040	-5.292525	125.776709	-5.292525	125.776709	-1.907149	-56.661349
7.050000	-2.045486	127.493745	-5.342685	124.421401	-5.342685	124.421401	-1.888653	-57.859045
7.100000	-2.025893	126.046649	-5.392164	123.069457	-5.392164	123.069457	-1.870880	-59.049224
7.150000	-2.006924	124.599667	-5.440957	121.720759	-5.440957	121.720759	-1.853810	-60.232019
7.200000	-1.988559	123.152717	-5.489057	120.375195	-5.489057	120.375195	-1.837428	-61.407566
7.250000	-1.970782	121.705720	-5.536456	119.032650	-5.536456	119.032650	-1.821714	-62.575996
7.300000	-1.953575	120.258597	-5.583149	117.693014	-5.583149	117.693014	-1.806653	-63.737443
7.350000	-1.936923	118.811274	-5.629130	116.356178	-5.629130	116.356178	-1.792229	-64.892039
7.400000	-1.920809	117.363677	-5.674394	115.022032	-5.674394	115.022032	-1.778425	-66.039917
7.450000	-1.905218	115.915737	-5.718935	113.690472	-5.718935	113.690472	-1.765226	-67.181209
7.500000	-1.890137	114.467386	-5.762748	112.361393	-5.762748	112.361393	-1.752619	-68.316044
7.550000	-1.875571	113.018537	-5.805788	111.034792	-5.805788	111.034792	-1.740612	-69.444287
7.600000	-1.861486	111.569146	-5.848092	109.710461	-5.848092	109.710461	-1.729167	-70.566347
7.650000	-1.847869	110.119155	-5.889656	108.388303	-5.889656	108.388303	-1.718272	-71.682356
7.700000	-1.834710	108.668509	-5.930475	107.068224	-5.930475	107.068224	-1.707913	-72.792444
7.750000	-1.821995	107.217157	-5.970547	105.750130	-5.970547	105.750130	-1.698080	-73.896740
7.800000	-1.809715	105.765049	-6.009869	104.433931	-6.009869	104.433931	-1.688759	-74.995374
7.850000	-1.797859	104.312141	-6.048436	103.119539	-6.048436	103.119539	-1.679941	-76.088475
7.900000	-1.786418	102.858391	-6.086248	101.806870	-6.086248	101.806870	-1.671613	-77.176173
7.950000	-1.775381	101.403760	-6.123301	100.495840	-6.123301	100.495840	-1.663768	-78.258596
8.000000	-1.764741	99.948213	-6.159593	99.186371	-6.159593	99.186371	-1.656394	-79.335872
8.050000	-1.754488	98.491720	-6.195123	97.878384	-6.195123	97.878384	-1.649482	-80.408132
8.100000	-1.744616	97.034253	-6.229890	96.571804	-6.229890	96.571804	-1.643025	-81.475502
8.150000	-1.735117	95.575787	-6.263892	95.266562	-6.263892	95.266562	-1.637013	-82.538110
8.200000	-1.725983	94.116303	-6.297129	93.962586	-6.297129	93.962586	-1.631439	-83.596086
8.250000	-1.717209	92.655785	-6.329601	92.659811	-6.329601	92.659811	-1.626295	-84.649556
8.300000	-1.708789	91.194220	-6.361307	91.358173	-6.361307	91.358173	-1.621575	-85.698647
8.350000	-1.700717	89.731600	-6.392248	90.057611	-6.392248	90.057611	-1.617272	-86.743488
8.400000	-1.692988	88.267920	-6.422426	88.758067	-6.422426	88.758067	-1.613381	-87.784205
8.450000	-1.685598	86.803181	-6.451840	87.459486	-6.451840	87.459486	-1.609895	-88.820925
8.500000	-1.678541	85.337385	-6.480493	86.161815	-6.480493	86.161815	-1.606811	-89.853775
8.550000	-1.671815	83.870541	-6.508387	84.865003	-6.508387	84.865003	-1.604124	-90.882880
8.600000	-1.665415	82.402660	-6.535525	83.569004	-6.535525	83.569004	-1.601829	-91.908366
8.650000	-1.659339	80.933759	-6.561908	82.273773	-6.561908	82.273773	-1.599924	-92.930359
8.700000	-1.653584	79.463857	-6.587541	80.979267	-6.587541	80.979267	-1.598405	-93.948984
8.750000	-1.648147	77.992980	-6.612427	79.685446	-6.612427	79.685446	-1.597271	-94.964366
8.800000	-1.643041	76.521117	-6.636536	78.392300	-6.636536	78.392300	-1.596535	-95.976499
8.850000	-1.638248	75.048343	-6.659908	77.099764	-6.659908	77.099764	-1.596179	-96.985647
8.900000	-1.633769	73.574696	-6.682549	75.807807	-6.682549	75.807807	-1.596204	-97.991934
8.950000	-1.629602	72.100219	-6.704463	74.516398	-6.704463	74.516398	-1.596608	-98.995482
9.000000	-1.625747	70.624957	-6.725657	73.225511	-6.725657	73.225511	-1.597391	-99.996412
9.050000	-1.622202	69.148961	-6.746139	71.935119	-6.746139	71.935119	-1.598556	-100.994845
9.100000	-1.618968	67.672286	-6.765914	70.645199	-6.765914	70.645199	-1.600102	-101.990902
9.150000	-1.616044	66.194991	-6.784991	69.355730	-6.784991	69.355730	-1.602032	-102.984700
9.200000	-1.613432	64.717138	-6.803377	68.066694	-6.803377	68.066694	-1.604347	-103.976359
9.250000	-1.611131	63.238795	-6.821081	66.778074	-6.821081	66.778074	-1.607052	-104.965995
9.300000	-1.609142	61.760034	-6.838113	65.489853	-6.838113	65.489853	-1.610149	-105.953723
9.350000	-1.607466	60.280929	-6.854482	64.202020	-6.854482	64.202020	-1.613643	-106.939659
9.400000	-1.606105	58.801561	-6.870198	62.914562	-6.870198	62.914562	-1.617538	-107.923915
9.450000	-1.605059	57.322011	-6.885271	61.627470	-6.885271	61.627470	-1.621839	-108.906603
9.500000	-1.604330	55.842368	-6.899712	60.340738	-6.899712	60.340738	-1.626552	-109.887833
9.550000	-1.603920	54.362721	-6.913533	59.054358	-6.913533	59.054358	-1.631683	-110.867714
9.600000	-1.603830	52.883167	-6.926746	57.768326	-6.926746	57.768326	-1.637239	-111.846351
9.650000	-1.604062	51.403803	-6.939363	56.482640	-6.939363	56.482640	-1.643228	-112.823850
9.700000	-1.604619	49.924731	-6.951397	55.197299	-6.951397	55.197299	-1.649658	-113.800314
9.750000	-1.605502	48.446057	-6.962862	53.912303	-6.962862	53.912303	-1.656536	-114.775842
9.800000	-1.606713	46.967888	-6.973771	52.627655	-6.973771	52.627655	-1.663872	-115.750533
9.850000	-1.608255	45.490338	-6.984137	51.343359	-6.984137	51.343359	-1.671676	-116.724482
9.900000	-1.610130	44.013521	-6.993977	50.059420	-6.993977	50.059420	-1.679958	-117.697784
9.950000	-1.612339	42.537554	-7.003305	48.775845	-7.003305	48.775845	-1.688729	-118.670527
10.000000	-1.614886	41.062560	-7.012135	47.492642	-7.012135	47.492642	-1.697999	-119.642801
