! freq	dB(S11)	phase(S11)	dB(S12)	phase(S12)	
!     	dB(S21)	phase(S21)	dB(S22)	phase(S22)	
!S-par simulation data
#  GHz  S  DB  R 50
0.000000	-94.929543	0.000000	-0.000156	0.000000	-0.000156	0.000000	-94.929543	0.000000
0.050000	-43.890404	-91.517942	-0.001346	-1.506315	-0.001346	-1.506315	-43.890376	-91.517486
0.100000	-37.881589	-93.263280	-0.004327	-3.006138	-0.004327	-3.006138	-37.881562	-93.262359
0.150000	-34.377611	-94.928283	-0.008058	-4.498601	-0.008058	-4.498601	-34.377585	-94.926890
0.200000	-31.900491	-96.549783	-0.011920	-5.986246	-0.011920	-5.986246	-31.900464	-96.547912
0.250000	-29.986615	-98.135518	-0.015730	-7.471308	-0.015730	-7.471308	-29.986586	-98.133174
0.300000	-28.428837	-99.692049	-0.019511	-8.955134	-0.019511	-8.955134	-28.428804	-99.689239
0.350000	-27.116196	-101.226686	-0.023346	-10.438296	-0.023346	-10.438296	-27.116159	-101.223423
0.400000	-25.982881	-102.744767	-0.027307	-11.920910	-0.027307	-11.920910	-25.982839	-102.741065
0.450000	-24.986808	-104.250375	-0.031466	-13.402895	-0.031466	-13.402895	-24.986761	-104.246245
0.500000	-24.098816	-105.747602	-0.035852	-14.884163	-0.035852	-14.884163	-24.098766	-105.743052
0.550000	-23.298472	-107.238847	-0.040492	-16.364581	-0.040492	-16.364581	-23.298419	-107.233883
0.600000	-22.570997	-108.725664	-0.045415	-17.843966	-0.045415	-17.843966	-22.570942	-108.720290
0.650000	-21.904801	-110.209415	-0.050618	-19.322223	-0.050618	-19.322223	-21.904744	-110.203631
0.700000	-21.291006	-111.690887	-0.056101	-20.799252	-0.056101	-20.799252	-21.290949	-111.684693
0.750000	-20.722792	-113.170518	-0.061870	-22.274906	-0.061870	-22.274906	-20.722735	-113.163912
0.800000	-20.194516	-114.648624	-0.067919	-23.749092	-0.067919	-23.749092	-20.194460	-114.641602
0.850000	-19.701515	-116.125393	-0.074236	-25.221738	-0.074236	-25.221738	-19.701459	-116.117951
0.900000	-19.239966	-117.600907	-0.080810	-26.692774	-0.080810	-26.692774	-19.239911	-117.593041
0.950000	-18.806698	-119.075182	-0.087632	-28.162123	-0.087632	-28.162123	-18.806644	-119.066886
1.000000	-18.399006	-120.548202	-0.094689	-29.629725	-0.094689	-29.629725	-18.398953	-120.539472
1.050000	-18.014582	-122.019929	-0.101968	-31.095525	-0.101968	-31.095525	-18.014529	-122.010759
1.100000	-17.651434	-123.490311	-0.109454	-32.559477	-0.109454	-32.559477	-17.651382	-123.480695
1.150000	-17.307835	-124.959287	-0.117133	-34.021542	-0.117133	-34.021542	-17.307782	-124.949222
1.200000	-16.982274	-126.426798	-0.124990	-35.481687	-0.124990	-35.481687	-16.982221	-126.416278
1.250000	-16.673423	-127.892784	-0.133010	-36.939885	-0.133010	-36.939885	-16.673369	-127.881803
1.300000	-16.380219	-129.357150	-0.141180	-38.396075	-0.141180	-38.396075	-16.380164	-129.345704
1.350000	-16.101507	-130.819878	-0.149481	-39.850284	-0.149481	-39.850284	-16.101450	-130.807963
1.400000	-15.836353	-132.280920	-0.157896	-41.302505	-0.157896	-41.302505	-15.836295	-132.268532
1.450000	-15.583923	-133.740236	-0.166411	-42.752737	-0.166411	-42.752737	-15.583862	-133.727370
1.500000	-15.343463	-135.197790	-0.175010	-44.200984	-0.175010	-44.200984	-15.343400	-135.184442
1.550000	-15.114291	-136.653553	-0.183678	-45.647256	-0.183678	-45.647256	-15.114226	-136.639721
1.600000	-14.895792	-138.107505	-0.192398	-47.091566	-0.192398	-47.091566	-14.895723	-138.093183
1.650000	-14.687402	-139.559630	-0.201156	-48.533934	-0.201156	-48.533934	-14.687331	-139.544816
1.700000	-14.488609	-141.009920	-0.209938	-49.974384	-0.209938	-49.974384	-14.488535	-140.994609
1.750000	-14.298944	-142.458374	-0.218728	-51.412945	-0.218728	-51.412945	-14.298867	-142.442564
1.800000	-14.117976	-143.904998	-0.227513	-52.849650	-0.227513	-52.849650	-14.117895	-143.888683
1.850000	-13.945308	-145.349803	-0.236279	-54.284535	-0.236279	-54.284535	-13.945224	-145.332980
1.900000	-13.780625	-146.792789	-0.245011	-55.717624	-0.245011	-55.717624	-13.780539	-146.775454
1.950000	-13.623590	-148.233982	-0.253695	-57.148961	-0.253695	-57.148961	-13.623501	-148.216131
2.000000	-13.473839	-149.673433	-0.262321	-58.578616	-0.262321	-58.578616	-13.473747	-149.655061
2.050000	-13.331082	-151.111180	-0.270875	-60.006639	-0.270875	-60.006639	-13.330988	-151.092282
2.100000	-13.195051	-152.547267	-0.279346	-61.433084	-0.279346	-61.433084	-13.194955	-152.527837
2.150000	-13.065497	-153.981742	-0.287722	-62.858010	-0.287722	-62.858010	-13.065398	-153.961777
2.200000	-12.942187	-155.414662	-0.295992	-64.281477	-0.295992	-64.281477	-12.942086	-155.394154
2.250000	-12.824903	-156.846085	-0.304146	-65.703547	-0.304146	-65.703547	-12.824801	-156.825029
2.300000	-12.713445	-158.276077	-0.312175	-67.124284	-0.312175	-67.124284	-12.713341	-158.254467
2.350000	-12.607623	-159.704708	-0.320068	-68.543757	-0.320068	-68.543757	-12.607518	-159.682536
2.400000	-12.507261	-161.132053	-0.327816	-69.962033	-0.327816	-69.962033	-12.507155	-161.109312
2.450000	-12.412194	-162.558189	-0.335411	-71.379184	-0.335411	-71.379184	-12.412088	-162.534872
2.500000	-12.322268	-163.983200	-0.342846	-72.795283	-0.342846	-72.795283	-12.322162	-163.959299
2.550000	-12.237427	-165.407152	-0.350107	-74.210382	-0.350107	-74.210382	-12.237321	-165.382657
2.600000	-12.157447	-166.830158	-0.357193	-75.624581	-0.357193	-75.624581	-12.157341	-166.805062
2.650000	-12.082200	-168.252313	-0.364096	-77.037956	-0.364096	-77.037956	-12.082095	-168.226607
2.700000	-12.011568	-169.673713	-0.370811	-78.450583	-0.370811	-78.450583	-12.011464	-169.647386
2.750000	-11.945442	-171.094455	-0.377332	-79.862543	-0.377332	-79.862543	-11.945338	-171.067499
2.800000	-11.883716	-172.514642	-0.383653	-81.273913	-0.383653	-81.273913	-11.883614	-172.487045
2.850000	-11.826295	-173.934375	-0.389771	-82.684773	-0.389771	-82.684773	-11.826194	-173.906128
2.900000	-11.773088	-175.353760	-0.395680	-84.095203	-0.395680	-84.095203	-11.772989	-175.324852
2.950000	-11.724010	-176.772902	-0.401378	-85.505285	-0.401378	-85.505285	-11.723913	-176.743322
3.000000	-11.678983	-178.191909	-0.406862	-86.915098	-0.406862	-86.915098	-11.678887	-178.161645
3.050000	-11.637933	-179.610888	-0.412127	-88.324724	-0.412127	-88.324724	-11.637839	-179.579929
3.100000	-11.600792	178.970052	-0.417173	-89.734244	-0.417173	-89.734244	-11.600699	179.001717
3.150000	-11.567535	177.550798	-0.421994	-91.143740	-0.421994	-91.143740	-11.567445	177.583183
3.200000	-11.538104	176.131239	-0.426590	-92.553295	-0.426590	-92.553295	-11.538015	176.164357
3.250000	-11.512403	174.711268	-0.430962	-93.962989	-0.430962	-93.962989	-11.512316	174.745130
3.300000	-11.490381	173.290777	-0.435109	-95.372904	-0.435109	-95.372904	-11.490296	173.325397
3.350000	-11.471993	171.869658	-0.439032	-96.783119	-0.439032	-96.783119	-11.471909	171.905050
3.400000	-11.457195	170.447807	-0.442730	-98.193713	-0.442730	-98.193713	-11.457113	170.483983
3.450000	-11.445948	169.025117	-0.446205	-99.604764	-0.446205	-99.604764	-11.445868	169.062092
3.500000	-11.438217	167.601485	-0.449458	-101.016351	-0.449458	-101.016351	-11.438139	167.639273
3.550000	-11.433970	166.176811	-0.452490	-102.428550	-0.452490	-102.428550	-11.433893	166.215426
3.600000	-11.433176	164.750994	-0.455304	-103.841437	-0.455304	-103.841437	-11.433101	164.790450
3.650000	-11.435810	163.323936	-0.457901	-105.255087	-0.457901	-105.255087	-11.435737	163.364250
3.700000	-11.441848	161.895543	-0.460285	-106.669575	-0.460285	-106.669575	-11.441776	161.936729
3.750000	-11.451270	160.465723	-0.462459	-108.084972	-0.462459	-108.084972	-11.451199	160.507797
3.800000	-11.464129	159.034349	-0.464421	-109.501373	-0.464421	-109.501373	-11.464060	159.077328
3.850000	-11.480337	157.601367	-0.466181	-110.918828	-0.466181	-110.918828	-11.480270	157.645267
3.900000	-11.499881	156.166694	-0.467742	-112.337405	-0.467742	-112.337405	-11.499816	156.211530
3.950000	-11.522750	154.730247	-0.469110	-113.757172	-0.469110	-113.757172	-11.522686	154.776039
4.000000	-11.548934	153.291951	-0.470288	-115.178193	-0.470288	-115.178193	-11.548871	153.338715
4.050000	-11.578427	151.851731	-0.471284	-116.600532	-0.471284	-116.600532	-11.578367	151.899486
4.100000	-11.611225	150.409518	-0.472101	-118.024251	-0.472101	-118.024251	-11.611166	150.458283
4.150000	-11.647324	148.965245	-0.472746	-119.449408	-0.472746	-119.449408	-11.647267	149.015039
4.200000	-11.686724	147.518849	-0.473224	-120.876063	-0.473224	-120.876063	-11.686669	147.569692
4.250000	-11.729425	146.070272	-0.473544	-122.304271	-0.473544	-122.304271	-11.729372	146.122184
4.300000	-11.775429	144.619458	-0.473710	-123.734084	-0.473710	-123.734084	-11.775379	144.672460
4.350000	-11.824740	143.166356	-0.473731	-125.165556	-0.473731	-125.165556	-11.824693	143.220471
4.400000	-11.877396	141.710894	-0.473611	-126.598753	-0.473611	-126.598753	-11.877351	141.766144
4.450000	-11.933401	140.253026	-0.473360	-128.033725	-0.473360	-128.033725	-11.933359	140.309434
4.500000	-11.992730	138.792739	-0.472984	-129.470496	-0.472984	-129.470496	-11.992693	138.850330
4.550000	-12.055394	137.329998	-0.472494	-130.909109	-0.472494	-130.909109	-12.055360	137.388797
4.600000	-12.121400	135.864771	-0.471896	-132.349603	-0.471896	-132.349603	-12.121371	135.924804
4.650000	-12.190761	134.397032	-0.471198	-133.792015	-0.471198	-133.792015	-12.190737	134.458326
4.700000	-12.263488	132.926757	-0.470410	-135.236377	-0.470410	-135.236377	-12.263469	132.989339
4.750000	-12.339594	131.453927	-0.469540	-136.682723	-0.469540	-136.682723	-12.339581	131.517826
4.800000	-12.419092	129.978524	-0.468595	-138.131080	-0.468595	-138.131080	-12.419086	130.043770
4.850000	-12.501998	128.500537	-0.467585	-139.581473	-0.467585	-139.581473	-12.501998	128.567161
4.900000	-12.588325	127.019958	-0.466519	-141.033927	-0.466519	-141.033927	-12.588332	127.087991
4.950000	-12.678089	125.536780	-0.465405	-142.488461	-0.465405	-142.488461	-12.678105	125.606255
5.000000	-12.771307	124.051001	-0.464251	-143.945093	-0.464251	-143.945093	-12.771332	124.121954
5.050000	-12.868047	122.562567	-0.463068	-145.403883	-0.463068	-145.403883	-12.868081	122.635033
5.100000	-12.968270	121.071539	-0.461863	-146.864797	-0.461863	-146.864797	-12.968315	121.145555
5.150000	-13.071995	119.577923	-0.460647	-148.327844	-0.460647	-148.327844	-13.072050	119.653527
5.200000	-13.179237	118.081731	-0.459427	-149.793029	-0.459427	-149.793029	-13.179305	118.158963
5.250000	-13.290016	116.582977	-0.458212	-151.260356	-0.458212	-151.260356	-13.290096	116.661877
5.300000	-13.404348	115.081675	-0.457011	-152.729823	-0.457011	-152.729823	-13.404441	115.162285
5.350000	-13.522251	113.577845	-0.455832	-154.201430	-0.455832	-154.201430	-13.522358	113.660209
5.400000	-13.643742	112.071508	-0.454685	-155.675169	-0.454685	-155.675169	-13.643864	112.155671
5.450000	-13.768840	110.562687	-0.453576	-157.151033	-0.453576	-157.151033	-13.768977	110.648695
5.500000	-13.897560	109.051410	-0.452514	-158.629011	-0.452514	-158.629011	-13.897715	109.139311
5.550000	-14.029921	107.537705	-0.451506	-160.109090	-0.451506	-160.109090	-14.030093	107.627548
5.600000	-14.165939	106.021603	-0.450561	-161.591253	-0.450561	-161.591253	-14.166129	106.113439
5.650000	-14.305644	104.503113	-0.449687	-163.075505	-0.449687	-163.075505	-14.305854	104.596995
5.700000	-14.449049	102.982272	-0.448890	-164.561823	-0.448890	-164.561823	-14.449280	103.078254
5.750000	-14.596153	101.459145	-0.448177	-166.050163	-0.448177	-166.050163	-14.596405	101.557283
5.800000	-14.746970	99.933776	-0.447555	-167.540498	-0.447555	-167.540498	-14.747244	100.034126
5.850000	-14.901590	98.406022	-0.447039	-169.032970	-0.447039	-169.032970	-14.901887	98.508648
5.900000	-15.059850	96.876332	-0.446616	-170.527189	-0.446616	-170.527189	-15.060171	96.981289
5.950000	-15.221861	95.344544	-0.446301	-172.023317	-0.446301	-172.023317	-15.222208	95.451893
6.000000	-15.387633	93.810715	-0.446099	-173.521321	-0.446099	-173.521321	-15.388007	93.920519
6.050000	-15.557175	92.274906	-0.446017	-175.021166	-0.446017	-175.021166	-15.557576	92.387229
6.100000	-15.730493	90.737182	-0.446057	-176.522816	-0.446057	-176.522816	-15.730923	90.852091
6.150000	-15.907592	89.197616	-0.446224	-178.026236	-0.446224	-178.026236	-15.908053	89.315177
6.200000	-16.088476	87.656286	-0.446523	-179.531386	-0.446523	-179.531386	-16.088968	87.776567
6.250000	-16.273144	86.113276	-0.446956	178.961773	-0.446956	178.961773	-16.273669	86.236348
6.300000	-16.461578	84.568618	-0.447533	177.453211	-0.447533	177.453211	-16.462137	84.694555
6.350000	-16.653775	83.022489	-0.448250	175.943041	-0.448250	175.943041	-16.654368	83.151363
6.400000	-16.849725	81.475003	-0.449110	174.431306	-0.449110	174.431306	-16.850355	81.606888
6.450000	-17.049416	79.926288	-0.450115	172.918047	-0.450115	172.918047	-17.050085	80.061258
6.500000	-17.252833	78.376485	-0.451266	171.403305	-0.451266	171.403305	-17.253541	78.514615
6.550000	-17.459954	76.825749	-0.452564	169.887123	-0.452564	169.887123	-17.460703	76.967115
6.600000	-17.670754	75.274253	-0.454009	168.369541	-0.454009	168.369541	-17.671546	75.418932
6.650000	-17.885202	73.722190	-0.455603	166.850602	-0.455603	166.850602	-17.886038	73.870257
6.700000	-18.103261	72.169771	-0.457345	165.330347	-0.457345	165.330347	-18.104143	72.321303
6.750000	-18.324888	70.617232	-0.459234	163.808815	-0.459234	163.808815	-18.325817	70.772306
6.800000	-18.550031	69.064836	-0.461270	162.286046	-0.461270	162.286046	-18.551010	69.223527
6.850000	-18.778632	67.512872	-0.463452	160.762080	-0.463452	160.762080	-18.779661	67.675255
6.900000	-19.010622	65.961662	-0.465778	159.236953	-0.465778	159.236953	-19.011703	66.127810
6.950000	-19.245924	64.411562	-0.468246	157.710704	-0.468246	157.710704	-19.247059	64.581547
7.000000	-19.484448	62.862965	-0.470855	156.183368	-0.470855	156.183368	-19.485639	63.036855
7.050000	-19.726095	61.316303	-0.473602	154.654978	-0.473602	154.654978	-19.727342	61.494167
7.100000	-19.970750	59.772056	-0.476485	153.125569	-0.476485	153.125569	-19.972054	59.953955
7.150000	-20.218285	58.230748	-0.479501	151.595171	-0.479501	151.595171	-20.219647	58.416741
7.200000	-20.468555	56.692957	-0.482646	150.063814	-0.482646	150.063814	-20.469977	56.883097
7.250000	-20.721401	55.159312	-0.485919	148.531527	-0.485919	148.531527	-20.722882	55.353646
7.300000	-20.976640	53.630503	-0.489314	146.998336	-0.489314	146.998336	-20.978181	53.829071
7.350000	-21.234074	52.107280	-0.492829	145.464267	-0.492829	145.464267	-21.235674	52.310113
7.400000	-21.493480	50.590457	-0.496461	143.929342	-0.496461	143.929342	-21.495137	50.797578
7.450000	-21.754610	49.080915	-0.500204	142.393584	-0.500204	142.393584	-21.756324	49.292334
7.500000	-22.017192	47.579604	-0.504056	140.857010	-0.504056	140.857010	-22.018961	47.795319
7.550000	-22.280613	46.087998	-0.508016	139.319606	-0.508016	139.319606	-22.282433	46.307991
7.600000	-22.544820	44.606837	-0.512077	137.781422	-0.512077	137.781422	-22.546687	44.831074
7.650000	-22.809451	43.137292	-0.516233	136.242472	-0.516233	136.242472	-22.811359	43.365718
7.700000	-23.074108	41.680595	-0.520481	134.702769	-0.520481	134.702769	-23.076052	41.913136
7.750000	-23.338359	40.238042	-0.524817	133.162321	-0.524817	133.162321	-23.340331	40.474601
7.800000	-23.601734	38.810984	-0.529236	131.621139	-0.529236	131.621139	-23.603726	39.051436
7.850000	-23.863725	37.400816	-0.533735	130.079228	-0.533735	130.079228	-23.865728	37.645009
7.900000	-24.123784	36.008967	-0.538310	128.536594	-0.538310	128.536594	-24.125785	36.256716
7.950000	-24.381321	34.636883	-0.542956	126.993240	-0.542956	126.993240	-24.383308	34.887970
8.000000	-24.635706	33.286009	-0.547671	125.449169	-0.547671	125.449169	-24.637665	33.540180
8.050000	-24.886268	31.957770	-0.552449	123.904380	-0.552449	123.904380	-24.888183	32.214730
8.100000	-25.132295	30.653538	-0.557288	122.358872	-0.557288	122.358872	-25.134150	30.912951
8.150000	-25.373038	29.374611	-0.562184	120.812644	-0.562184	120.812644	-25.374815	29.636096
8.200000	-25.607713	28.122174	-0.567134	119.265691	-0.567134	119.265691	-25.609393	28.385304
8.250000	-25.835503	26.897265	-0.572134	117.718009	-0.572134	117.718009	-25.837069	27.161566
8.300000	-26.055569	25.700740	-0.577181	116.169590	-0.577181	116.169590	-26.057000	25.965690
8.350000	-26.267048	24.533229	-0.582273	114.620429	-0.582273	114.620429	-26.268326	24.798258
8.400000	-26.469071	23.395103	-0.587406	113.070517	-0.587406	113.070517	-26.470179	23.659592
8.450000	-26.660766	22.286429	-0.592578	111.519844	-0.592578	111.519844	-26.661687	22.549719
8.500000	-26.841270	21.206945	-0.597787	109.968400	-0.597787	109.968400	-26.841991	21.468332
8.550000	-27.009744	20.156026	-0.603029	108.416173	-0.603029	108.416173	-27.010254	20.414771
8.600000	-27.165385	19.132665	-0.608303	106.863152	-0.608303	106.863152	-27.165677	19.388001
8.650000	-27.307439	18.135465	-0.613607	105.309325	-0.613607	105.309325	-27.307509	18.386599
8.700000	-27.435217	17.162635	-0.618939	103.754676	-0.618939	103.754676	-27.435068	17.408762
8.750000	-27.548109	16.212008	-0.624297	102.199192	-0.624297	102.199192	-27.547748	16.452318
8.800000	-27.644871	15.281785	-0.629680	100.642821	-0.629680	100.642821	-27.644312	15.515443
8.850000	-27.725817	14.368135	-0.635086	99.085582	-0.635086	99.085582	-27.725078	14.594357
8.900000	-27.790660	13.467948	-0.640515	97.527458	-0.640515	97.527458	-27.789766	13.685984
8.950000	-27.839232	12.577937	-0.645964	95.968434	-0.645964	95.968434	-27.838212	12.787077
9.000000	-27.871495	11.694714	-0.651432	94.408491	-0.651432	94.408491	-27.870384	11.894299
9.050000	-27.887539	10.814866	-0.656920	92.847609	-0.656920	92.847609	-27.886375	11.004301
9.100000	-27.887580	9.935039	-0.662426	91.285771	-0.662426	91.285771	-27.886405	10.113793
9.150000	-27.871957	9.052007	-0.667949	89.722955	-0.667949	89.722955	-27.870815	9.219627
9.200000	-27.841122	8.162749	-0.673491	88.159141	-0.673491	88.159141	-27.840060	8.318857
9.250000	-27.795632	7.264506	-0.679049	86.594307	-0.679049	86.594307	-27.794695	7.408807
9.300000	-27.736133	6.354833	-0.684624	85.028431	-0.684624	85.028431	-27.735367	6.487108
9.350000	-27.663350	5.431632	-0.690216	83.461489	-0.690216	83.461489	-27.662799	5.551743
9.400000	-27.578069	4.493177	-0.695825	81.893456	-0.695825	81.893456	-27.577775	4.601060
9.450000	-27.481124	3.538126	-0.701452	80.324308	-0.701452	80.324308	-27.481127	3.633788
9.500000	-27.373383	2.565517	-0.707097	78.754016	-0.707097	78.754016	-27.373719	2.649031
9.550000	-27.255732	1.574759	-0.712760	77.182554	-0.712760	77.182554	-27.256432	1.646255
9.600000	-27.129063	0.565608	-0.718442	75.609892	-0.718442	75.609892	-27.130156	0.625269
9.650000	-26.994262	-0.461863	-0.724145	74.035999	-0.724145	74.035999	-26.995774	-0.413806
9.700000	-26.852202	-1.507287	-0.729869	72.460844	-0.729869	72.460844	-26.854152	-1.470569
9.750000	-26.703731	-2.570051	-0.735616	70.884393	-0.735616	70.884393	-26.706136	-2.544370
9.800000	-26.549665	-3.649324	-0.741387	69.306611	-0.741387	69.306611	-26.552537	-3.634354
9.850000	-26.390786	-4.744097	-0.747184	67.727461	-0.747184	67.727461	-26.394136	-4.739491
9.900000	-26.227834	-5.853217	-0.753010	66.146905	-0.753010	66.146905	-26.231669	-5.858614
9.950000	-26.061509	-6.975426	-0.758865	64.564901	-0.758865	64.564901	-26.065831	-6.990452
10.000000	-25.892464	-8.109382	-0.764753	62.981409	-0.764753	62.981409	-25.897274	-8.133660
