! freq	dB(S11)	phase(S11)	dB(S12)	phase(S12)	
!     	dB(S21)	phase(S21)	dB(S22)	phase(S22)	
!S-par simulation data
#  GHz  S  DB  R 50
0.000000	-88.253573	0.000000	-0.000336	0.000000	-0.000336	0.000000	-88.253573	0.000000
0.050000	-50.563590	-88.584789	-0.002383	-1.741982	-0.002383	-1.741982	-50.615268	-92.542205
0.100000	-44.613843	-88.733281	-0.005683	-3.465688	-0.005683	-3.465688	-44.666933	-96.663677
0.150000	-41.135931	-88.852010	-0.008385	-5.181134	-0.008385	-5.181134	-41.188382	-100.752638
0.200000	-38.655706	-88.940008	-0.010674	-6.894818	-0.010674	-6.894818	-38.705001	-104.795724
0.250000	-36.718267	-88.977529	-0.012855	-8.608397	-0.012855	-8.608397	-36.762214	-108.765346
0.300000	-35.122466	-88.970224	-0.015067	-10.322105	-0.015067	-10.322105	-35.159340	-112.662569
0.350000	-33.760713	-88.929218	-0.017358	-12.035954	-0.017358	-12.035954	-33.789145	-116.494264
0.400000	-32.569266	-88.866802	-0.019735	-13.749971	-0.019735	-13.749971	-32.588344	-120.270016
0.450000	-31.506313	-88.792642	-0.022198	-15.464243	-0.022198	-15.464243	-31.515351	-123.995063
0.500000	-30.544322	-88.715357	-0.024738	-17.178883	-0.024738	-17.178883	-30.543001	-127.676281
0.550000	-29.662740	-88.641728	-0.027357	-18.894048	-0.027357	-18.894048	-29.650865	-131.316101
0.600000	-28.847442	-88.577039	-0.030056	-20.609869	-0.030056	-20.609869	-28.825055	-134.918656
0.650000	-28.086963	-88.525933	-0.032843	-22.326511	-0.032843	-22.326511	-28.054184	-138.485149
0.700000	-27.373039	-88.491713	-0.035727	-24.044099	-0.035727	-24.044099	-27.330109	-142.017700
0.750000	-26.698797	-88.477413	-0.038723	-25.762771	-0.038723	-25.762771	-26.646009	-145.517105
0.800000	-26.058897	-88.485325	-0.041844	-27.482644	-0.041844	-27.482644	-25.996596	-148.984245
0.850000	-25.449041	-88.517249	-0.045106	-29.203818	-0.045106	-29.203818	-25.377608	-152.419851
0.900000	-24.865625	-88.574759	-0.048527	-30.926392	-0.048527	-30.926392	-24.785460	-155.824322
0.950000	-24.305659	-88.659160	-0.052125	-32.650454	-0.052125	-32.650454	-24.217173	-159.197960
1.000000	-23.766601	-88.771610	-0.055918	-34.376093	-0.055918	-34.376093	-23.670207	-162.540917
1.050000	-23.246480	-88.912674	-0.059923	-36.103366	-0.059923	-36.103366	-23.142603	-165.853729
1.100000	-22.743530	-89.082965	-0.064159	-37.832334	-0.064159	-37.832334	-22.632591	-169.136672
1.150000	-22.256245	-89.282945	-0.068642	-39.563056	-0.068642	-39.563056	-22.138659	-172.390027
1.200000	-21.783330	-89.512948	-0.073391	-41.295583	-0.073391	-41.295583	-21.659509	-175.614088
1.250000	-21.323672	-89.773195	-0.078424	-43.029961	-0.078424	-43.029961	-21.194019	-178.809170
1.300000	-20.876185	-90.064142	-0.083762	-44.766253	-0.083762	-44.766253	-20.741091	178.024695
1.350000	-20.440157	-90.385494	-0.089421	-46.504477	-0.089421	-46.504477	-20.300007	174.886832
1.400000	-20.014853	-90.737213	-0.095418	-48.244666	-0.095418	-48.244666	-19.870023	171.776853
1.450000	-19.599632	-91.119194	-0.101773	-49.986851	-0.101773	-49.986851	-19.450483	168.694351
1.500000	-19.193926	-91.531274	-0.108503	-51.731055	-0.108503	-51.731055	-19.040809	165.638896
1.550000	-18.797237	-91.973238	-0.115628	-53.477302	-0.115628	-53.477302	-18.640490	162.610043
1.600000	-18.409050	-92.445070	-0.123169	-55.225625	-0.123169	-55.225625	-18.248998	159.607540
1.650000	-18.029027	-92.946304	-0.131146	-56.976027	-0.131146	-56.976027	-17.865982	156.630764
1.700000	-17.656842	-93.476528	-0.139575	-58.728509	-0.139575	-58.728509	-17.491103	153.679164
1.750000	-17.292182	-94.035380	-0.148477	-60.483076	-0.148477	-60.483076	-17.124034	150.752252
1.800000	-16.934766	-94.622471	-0.157872	-62.239725	-0.157872	-62.239725	-16.764481	147.849538
1.850000	-16.584343	-95.237390	-0.167781	-63.998451	-0.167781	-63.998451	-16.412176	144.970531
1.900000	-16.240649	-95.879852	-0.178227	-65.759250	-0.178227	-65.759250	-16.066843	142.114869
1.950000	-15.903483	-96.549401	-0.189233	-67.522104	-0.189233	-67.522104	-15.728268	139.282060
2.000000	-15.572699	-97.245423	-0.200817	-69.286976	-0.200817	-69.286976	-15.396290	136.471502
2.050000	-15.248128	-97.967443	-0.213001	-71.053834	-0.213001	-71.053834	-15.070725	133.682730
2.100000	-14.929616	-98.714972	-0.225807	-72.822638	-0.225807	-72.822638	-14.751406	130.915289
2.150000	-14.617023	-99.487512	-0.239256	-74.593341	-0.239256	-74.593341	-14.438179	128.168735
2.200000	-14.310207	-100.284622	-0.253373	-76.365893	-0.253373	-76.365893	-14.130891	125.442693
2.250000	-14.009028	-101.105911	-0.268185	-78.140240	-0.268185	-78.140240	-13.829387	122.736852
2.300000	-13.713420	-101.950658	-0.283708	-79.916295	-0.283708	-79.916295	-13.533589	120.050649
2.350000	-13.423284	-102.818339	-0.299964	-81.693977	-0.299964	-81.693977	-13.243385	117.383701
2.400000	-13.138527	-103.708421	-0.316975	-83.473199	-0.316975	-83.473199	-12.958670	114.735645
2.450000	-12.859063	-104.620369	-0.334764	-85.253860	-0.334764	-85.253860	-12.679347	112.106136
2.500000	-12.584811	-105.553646	-0.353351	-87.035855	-0.353351	-87.035855	-12.405325	109.494847
2.550000	-12.315665	-106.507929	-0.372767	-88.819079	-0.372767	-88.819079	-12.136486	106.901661
2.600000	-12.051592	-107.482441	-0.393023	-90.603392	-0.393023	-90.603392	-11.872787	104.326092
2.650000	-11.792526	-108.476635	-0.414140	-92.388657	-0.414140	-92.388657	-11.614153	101.767869
2.700000	-11.538405	-109.489964	-0.436136	-94.174733	-0.436136	-94.174733	-11.360512	99.226744
2.750000	-11.289168	-110.521878	-0.459030	-95.961465	-0.459030	-95.961465	-11.111795	96.702483
2.800000	-11.044760	-111.571825	-0.482839	-97.748692	-0.482839	-97.748692	-10.867938	94.194874
2.850000	-10.805111	-112.639393	-0.507586	-99.536245	-0.507586	-99.536245	-10.628864	91.703855
2.900000	-10.570181	-113.723926	-0.533283	-101.323942	-0.533283	-101.323942	-10.394527	89.229159
2.950000	-10.339925	-114.824827	-0.559941	-103.111596	-0.559941	-103.111596	-10.164875	86.770581
3.000000	-10.114293	-115.941545	-0.587572	-104.899013	-0.587572	-104.899013	-9.939850	84.327982
3.050000	-9.893236	-117.073531	-0.616189	-106.685992	-0.616189	-106.685992	-9.719399	81.901235
3.100000	-9.676706	-118.220237	-0.645800	-108.472328	-0.645800	-108.472328	-9.503468	79.490231
3.150000	-9.464651	-119.381193	-0.676420	-110.257801	-0.676420	-110.257801	-9.292003	77.094962
3.200000	-9.257028	-120.555848	-0.708055	-112.042190	-0.708055	-112.042190	-9.084954	74.715346
3.250000	-9.053788	-121.743756	-0.740717	-113.825258	-0.740717	-113.825258	-8.882270	72.351443
3.300000	-8.854896	-122.944097	-0.774390	-115.606806	-0.774390	-115.606806	-8.683913	70.002863
3.350000	-8.660299	-124.156450	-0.809084	-117.386593	-0.809084	-117.386593	-8.489826	67.669691
3.400000	-8.469950	-125.380289	-0.844798	-119.164389	-0.844798	-119.164389	-8.299962	65.351898
3.450000	-8.283801	-126.615094	-0.881530	-120.939959	-0.881530	-120.939959	-8.114269	63.049463
3.500000	-8.101804	-127.860353	-0.919276	-122.713068	-0.919276	-122.713068	-7.932698	60.762376
3.550000	-7.923908	-129.115559	-0.958031	-124.483482	-0.958031	-124.483482	-7.755199	58.490635
3.600000	-7.750065	-130.380215	-0.997788	-126.250965	-0.997788	-126.250965	-7.581721	56.234244
3.650000	-7.580225	-131.653830	-1.038536	-128.015285	-1.038536	-128.015285	-7.412214	53.993215
3.700000	-7.414335	-132.935923	-1.080266	-129.776211	-1.080266	-129.776211	-7.246627	51.767564
3.750000	-7.252344	-134.226022	-1.122964	-131.533512	-1.122964	-131.533512	-7.084908	49.557312
3.800000	-7.094222	-135.523819	-1.166632	-133.286876	-1.166632	-133.286876	-6.927026	47.362820
3.850000	-6.939896	-136.828690	-1.211235	-135.036160	-1.211235	-135.036160	-6.772910	45.183781
3.900000	-6.789313	-138.140195	-1.256757	-136.781147	-1.256757	-136.781147	-6.622508	43.020224
3.950000	-6.642416	-139.457908	-1.303177	-138.521628	-1.303177	-138.521628	-6.475766	40.872180
4.000000	-6.499150	-140.781411	-1.350474	-140.257396	-1.350474	-140.257396	-6.332628	38.739679
4.050000	-6.359458	-142.110304	-1.398626	-141.988253	-1.398626	-141.988253	-6.193039	36.622751
4.100000	-6.223283	-143.444195	-1.447608	-143.714008	-1.447608	-143.714008	-6.056944	34.521425
4.150000	-6.090566	-144.782709	-1.497396	-145.434477	-1.497396	-145.434477	-5.924287	32.435728
4.200000	-5.961250	-146.125483	-1.547961	-147.149485	-1.547961	-147.149485	-5.795010	30.365684
4.250000	-5.835274	-147.472168	-1.599278	-148.858862	-1.599278	-148.858862	-5.669058	28.311312
4.300000	-5.712580	-148.822428	-1.651315	-150.562451	-1.651315	-150.562451	-5.546372	26.272631
4.350000	-5.593108	-150.175943	-1.704044	-152.260101	-1.704044	-152.260101	-5.426894	24.249653
4.400000	-5.476814	-151.532436	-1.757437	-153.951603	-1.757437	-153.951603	-5.310584	22.242557
4.450000	-5.363640	-152.891606	-1.811461	-155.636822	-1.811461	-155.636822	-5.197385	20.251345
4.500000	-5.253507	-154.253144	-1.866080	-157.315702	-1.866080	-157.315702	-5.087221	18.275843
4.550000	-5.146354	-155.616789	-1.921260	-158.988132	-1.921260	-158.988132	-4.980033	16.316044
4.600000	-5.042120	-156.982294	-1.976968	-160.654009	-1.976968	-160.654009	-4.875762	14.371931
4.650000	-4.940745	-158.349427	-2.033170	-162.313241	-2.033170	-162.313241	-4.774351	12.443483
4.700000	-4.842169	-159.717968	-2.089831	-163.965746	-2.089831	-163.965746	-4.675740	10.530672
4.750000	-4.746330	-161.087714	-2.146917	-165.611451	-2.146917	-165.611451	-4.579871	8.633465
4.800000	-4.653168	-162.458474	-2.204393	-167.250293	-2.204393	-167.250293	-4.486687	6.751819
4.850000	-4.562624	-163.830072	-2.262223	-168.882218	-2.262223	-168.882218	-4.396129	4.885687
4.900000	-4.474639	-165.202345	-2.320373	-170.507182	-2.320373	-170.507182	-4.308140	3.035015
4.950000	-4.389153	-166.575143	-2.378807	-172.125150	-2.378807	-172.125150	-4.222663	1.199740
5.000000	-4.306108	-167.948329	-2.437490	-173.736096	-2.437490	-173.736096	-4.139643	-0.620204
5.050000	-4.225481	-169.321780	-2.496383	-175.339849	-2.496383	-175.339849	-4.059057	-2.424563
5.100000	-4.147180	-170.695378	-2.555454	-176.936555	-2.555454	-176.936555	-3.980816	-4.213752
5.150000	-4.071149	-172.069023	-2.614668	-178.526213	-2.614668	-178.526213	-3.904864	-5.987858
5.200000	-3.997330	-173.442627	-2.673992	179.891168	-2.673992	179.891168	-3.831148	-7.746975
5.250000	-3.925671	-174.816111	-2.733392	178.315571	-2.733392	178.315571	-3.759613	-9.491204
5.300000	-3.856115	-176.189410	-2.792835	176.746972	-2.792835	176.746972	-3.690209	-11.220650
5.350000	-3.788611	-177.562467	-2.852288	175.185342	-2.852288	175.185342	-3.622883	-12.935424
5.400000	-3.723105	-178.935236	-2.911718	173.630642	-2.911718	173.630642	-3.557584	-14.635643
5.450000	-3.659546	179.692320	-2.971095	172.082827	-2.971095	172.082827	-3.494262	-16.321429
5.500000	-3.597885	178.320230	-3.030386	170.541847	-3.030386	170.541847	-3.432869	-17.992909
5.550000	-3.538070	176.948513	-3.089562	169.007646	-3.089562	169.007646	-3.373356	-19.650214
5.600000	-3.480054	175.577181	-3.148592	167.480160	-3.148592	167.480160	-3.315677	-21.293480
5.650000	-3.423803	174.206242	-3.207441	165.959393	-3.207441	165.959393	-3.259799	-22.922697
5.700000	-3.369271	172.835691	-3.266079	164.445270	-3.266079	164.445270	-3.205678	-24.538014
5.750000	-3.316396	171.465514	-3.324485	162.937642	-3.324485	162.937642	-3.153254	-26.139730
5.800000	-3.265134	170.095692	-3.382632	161.436424	-3.382632	161.436424	-3.102483	-27.727996
5.850000	-3.215441	168.726202	-3.440493	159.941532	-3.440493	159.941532	-3.053323	-29.302966
5.900000	-3.167275	167.357015	-3.498042	158.452874	-3.498042	158.452874	-3.005733	-30.864797
5.950000	-3.120595	165.988095	-3.555255	156.970357	-3.555255	156.970357	-2.959673	-32.413650
6.000000	-3.075358	164.619404	-3.612107	155.493884	-3.612107	155.493884	-2.915104	-33.949685
6.050000	-3.031577	163.250901	-3.668542	154.023606	-3.668542	154.023606	-2.872039	-35.472528
6.100000	-2.989099	161.882525	-3.724611	152.558849	-3.724611	152.558849	-2.830324	-36.983565
6.150000	-2.947951	160.514232	-3.780252	151.099830	-3.780252	151.099830	-2.789989	-38.482281
6.200000	-2.908095	159.145965	-3.835443	149.646440	-3.835443	149.646440	-2.750998	-39.968844
6.250000	-2.869497	157.777666	-3.890163	148.198568	-3.890163	148.198568	-2.713317	-41.443426
6.300000	-2.832166	156.409263	-3.944356	146.756334	-3.944356	146.756334	-2.676961	-42.905694
6.350000	-2.796021	155.040693	-3.998038	145.319383	-3.998038	145.319383	-2.641848	-44.356342
6.400000	-2.761030	153.671886	-4.051192	143.887600	-4.051192	143.887600	-2.607946	-45.795543
6.450000	-2.727161	152.302773	-4.103798	142.460868	-4.103798	142.460868	-2.575225	-47.223474
6.500000	-2.694383	150.933280	-4.155841	141.039070	-4.155841	141.039070	-2.543656	-48.640309
6.550000	-2.662666	149.563334	-4.207304	139.622088	-4.207304	139.622088	-2.513209	-50.046224
6.600000	-2.631979	148.192857	-4.258171	138.209801	-4.258171	138.209801	-2.483857	-51.441396
6.650000	-2.602296	146.821775	-4.308427	136.802089	-4.308427	136.802089	-2.455574	-52.826000
6.700000	-2.573588	145.450008	-4.358058	135.398834	-4.358058	135.398834	-2.428332	-54.200212
6.750000	-2.545829	144.077477	-4.407050	133.999912	-4.407050	133.999912	-2.402108	-55.564210
6.800000	-2.518992	142.704104	-4.455389	132.605204	-4.455389	132.605204	-2.376875	-56.918168
6.850000	-2.493053	141.329808	-4.503064	131.214589	-4.503064	131.214589	-2.352612	-58.262263
6.900000	-2.467986	139.954509	-4.550063	129.827944	-4.550063	129.827944	-2.329294	-59.596671
6.950000	-2.443769	138.578127	-4.596373	128.445149	-4.596373	128.445149	-2.306899	-60.921566
7.000000	-2.420378	137.200583	-4.641984	127.066083	-4.641984	127.066083	-2.285407	-62.237124
7.050000	-2.397790	135.821796	-4.686886	125.690626	-4.686886	125.690626	-2.264796	-63.543518
7.100000	-2.375985	134.441688	-4.731068	124.318656	-4.731068	124.318656	-2.245047	-64.840922
7.150000	-2.354941	133.060179	-4.774523	122.950055	-4.774523	122.950055	-2.226139	-66.129510
7.200000	-2.334638	131.677193	-4.817240	121.584703	-4.817240	121.584703	-2.208055	-67.409454
7.250000	-2.315057	130.292651	-4.859212	120.222480	-4.859212	120.222480	-2.190776	-68.680927
7.300000	-2.296178	128.906479	-4.900431	118.863270	-4.900431	118.863270	-2.174285	-69.944099
7.350000	-2.277984	127.518602	-4.940890	117.506953	-4.940890	117.506953	-2.158565	-71.199141
7.400000	-2.260456	126.128947	-4.980581	116.153415	-4.980581	116.153415	-2.143599	-72.446224
7.450000	-2.243578	124.737442	-5.019499	114.802538	-5.019499	114.802538	-2.129372	-73.685517
7.500000	-2.227333	123.344017	-5.057637	113.454208	-5.057637	113.454208	-2.115870	-74.917190
7.550000	-2.211729	121.948513	-5.094949	112.108410	-5.094949	112.108410	-2.103105	-76.141093
7.600000	-2.196726	120.550948	-5.131471	110.764921	-5.131471	110.764921	-2.091035	-77.357727
7.650000	-2.182310	119.151259	-5.167199	109.423628	-5.167199	109.423628	-2.079646	-78.567257
7.700000	-2.168464	117.749382	-5.202127	108.084420	-5.202127	108.084420	-2.068924	-79.769852
7.750000	-2.155177	116.345258	-5.236253	106.747187	-5.236253	106.747187	-2.058857	-80.965676
7.800000	-2.142435	114.938829	-5.269573	105.411819	-5.269573	105.411819	-2.049434	-82.154896
7.850000	-2.130225	113.530040	-5.302083	104.078208	-5.302083	104.078208	-2.040641	-83.337676
7.900000	-2.118535	112.118840	-5.333781	102.746246	-5.333781	102.746246	-2.032470	-84.514182
7.950000	-2.107354	110.705177	-5.364664	101.415828	-5.364664	101.415828	-2.024907	-85.684577
8.000000	-2.096670	109.289005	-5.394731	100.086848	-5.394731	100.086848	-2.017945	-86.849026
8.050000	-2.086474	107.870281	-5.423978	98.759202	-5.423978	98.759202	-2.011571	-88.007693
8.100000	-2.076755	106.448962	-5.452406	97.432788	-5.452406	97.432788	-2.005778	-89.160742
8.150000	-2.067503	105.025011	-5.480012	96.107502	-5.480012	96.107502	-2.000556	-90.308336
8.200000	-2.058709	103.598393	-5.506796	94.783246	-5.506796	94.783246	-1.995896	-91.450639
8.250000	-2.050364	102.169077	-5.532757	93.459918	-5.532757	93.459918	-1.991791	-92.587815
8.300000	-2.042462	100.737035	-5.557895	92.137420	-5.557895	92.137420	-1.988232	-93.720028
8.350000	-2.034968	99.302402	-5.582261	90.815620	-5.582261	90.815620	-1.985181	-94.847708
8.400000	-2.027912	97.864933	-5.605782	89.494480	-5.605782	89.494480	-1.982674	-95.970628
8.450000	-2.021309	96.424445	-5.628409	88.173923	-5.628409	88.173923	-1.980736	-97.088716
8.500000	-2.015097	94.981304	-5.650260	86.853788	-5.650260	86.853788	-1.979288	-98.202732
8.550000	-2.009302	93.535282	-5.671270	85.534012	-5.671270	85.534012	-1.978365	-99.312516
8.600000	-2.003910	92.086430	-5.691455	84.214499	-5.691455	84.214499	-1.977950	-100.418314
8.650000	-1.998901	90.634854	-5.710852	82.895149	-5.710852	82.895149	-1.978019	-101.520441
8.700000	-1.994308	89.180287	-5.729379	81.575885	-5.729379	81.575885	-1.978616	-102.618709
8.750000	-1.990068	87.723168	-5.747170	80.256614	-5.747170	80.256614	-1.979659	-103.713833
8.800000	-1.986257	86.262916	-5.764045	78.937236	-5.764045	78.937236	-1.981247	-104.805270
8.850000	-1.982791	84.800139	-5.780188	77.617690	-5.780188	77.617690	-1.983273	-105.893881
8.900000	-1.979726	83.334429	-5.795471	76.297859	-5.795471	76.297859	-1.985809	-106.979366
8.950000	-1.977023	81.866077	-5.809977	74.977689	-5.809977	74.977689	-1.988804	-108.062178
9.000000	-1.974694	80.395009	-5.823677	73.657082	-5.823677	73.657082	-1.992274	-109.142389
9.050000	-1.972743	78.921206	-5.836558	72.335947	-5.836558	72.335947	-1.996225	-110.220129
9.100000	-1.971142	77.444912	-5.848686	71.014247	-5.848686	71.014247	-2.000619	-111.295757
9.150000	-1.969938	75.965820	-5.859955	69.691817	-5.859955	69.691817	-2.005516	-112.369168
9.200000	-1.969068	74.484423	-5.870509	68.368702	-5.870509	68.368702	-2.010835	-113.440887
9.250000	-1.968600	73.000293	-5.880195	67.044672	-5.880195	67.044672	-2.016663	-114.510762
9.300000	-1.968472	71.513915	-5.889158	65.719799	-5.889158	65.719799	-2.022919	-115.579263
9.350000	-1.968726	70.025076	-5.897308	64.393901	-5.897308	64.393901	-2.029656	-116.646418
9.400000	-1.969342	68.533979	-5.904695	63.066962	-5.904695	63.066962	-2.036847	-117.712494
9.450000	-1.970319	67.040699	-5.911323	61.738912	-5.911323	61.738912	-2.044493	-118.777688
9.500000	-1.971681	65.545189	-5.917151	60.409609	-5.917151	60.409609	-2.052620	-119.842157
9.550000	-1.973386	64.047773	-5.922272	59.079129	-5.922272	59.079129	-2.061176	-120.906173
9.600000	-1.975500	62.548195	-5.926559	57.747173	-5.926559	57.747173	-2.070242	-121.969882
9.650000	-1.977953	61.046919	-5.930161	56.413938	-5.930161	56.413938	-2.079732	-123.033537
9.700000	-1.980812	59.543730	-5.932952	55.079106	-5.932952	55.079106	-2.089728	-124.097361
9.750000	-1.984029	58.038964	-5.935038	53.742814	-5.935038	53.742814	-2.100169	-125.161545
9.800000	-1.987635	56.532605	-5.936366	52.404876	-5.936366	52.404876	-2.111095	-126.226353
9.850000	-1.991626	55.024797	-5.936953	51.065259	-5.936953	51.065259	-2.122501	-127.292002
9.900000	-1.995989	53.515710	-5.936833	49.723968	-5.936833	49.723968	-2.134372	-128.358692
9.950000	-2.000765	52.005348	-5.935940	48.380768	-5.935940	48.380768	-2.146759	-129.426786
10.000000	-2.005898	50.494011	-5.934389	47.035882	-5.934389	47.035882	-2.159593	-130.496301
