! freq	dB(S11)	phase(S11)	dB(S12)	phase(S12)	
!     	dB(S21)	phase(S21)	dB(S22)	phase(S22)	
!S-par simulation data
#  GHz  S  DB  R 50
0.000000	-84.121829	0.000000	-0.000540	0.000000	-0.000540	0.000000	-84.121829	0.000000
0.050000	-27.245216	-95.827487	-0.015736	-5.673732	-0.015736	-5.673732	-27.245259	-95.828058
0.100000	-21.318847	-101.634535	-0.049890	-11.261875	-0.049890	-11.261875	-21.318909	-101.635603
0.150000	-17.929509	-107.252010	-0.095904	-16.783268	-0.095904	-16.783268	-17.929586	-107.253527
0.200000	-15.591463	-112.741375	-0.153367	-22.242717	-0.153367	-22.242717	-15.591551	-112.743334
0.250000	-13.839844	-118.132773	-0.221412	-27.629445	-0.221412	-27.629445	-13.839941	-118.135183
0.300000	-12.467252	-123.434713	-0.298034	-32.932821	-0.298034	-32.932821	-12.467357	-123.437586
0.350000	-11.363925	-128.645367	-0.380741	-38.144357	-0.380741	-38.144357	-11.364038	-128.648724
0.400000	-10.462397	-133.763290	-0.466782	-43.261436	-0.466782	-43.261436	-10.462521	-133.767155
0.450000	-9.722871	-138.783501	-0.553344	-48.280386	-0.553344	-48.280386	-9.723005	-138.787903
0.500000	-9.111292	-143.712552	-0.637920	-53.210173	-0.637920	-53.210173	-9.111437	-143.717526
0.550000	-8.609343	-148.550920	-0.718131	-58.053819	-0.718131	-58.053819	-8.609500	-148.556510
0.600000	-8.200892	-153.305782	-0.791990	-62.820095	-0.791990	-62.820095	-8.201061	-153.312039
0.650000	-7.870443	-157.989967	-0.858340	-67.521820	-0.858340	-67.521820	-7.870625	-157.996949
0.700000	-7.610110	-162.611788	-0.915764	-72.167041	-0.915764	-72.167041	-7.610306	-162.619563
0.750000	-7.418183	-167.178461	-0.962071	-76.762836	-0.962071	-76.762836	-7.418394	-167.187118
0.800000	-7.284685	-171.707036	-0.997176	-81.325394	-0.997176	-81.325394	-7.284911	-171.716672
0.850000	-7.206605	-176.209236	-1.020370	-85.866411	-1.020370	-85.866411	-7.206850	-176.219966
0.900000	-7.184063	179.302950	-1.030756	-90.398328	-1.030756	-90.398328	-7.184328	179.290986
0.950000	-7.218271	174.815556	-1.027770	-94.935940	-1.027770	-94.935940	-7.218558	174.802184
1.000000	-7.307143	170.315732	-1.012272	-99.492686	-1.012272	-99.492686	-7.307457	170.300750
1.050000	-7.453169	165.791838	-0.984628	-104.081372	-0.984628	-104.081372	-7.453514	165.775003
1.100000	-7.664161	161.229706	-0.944794	-108.718396	-0.944794	-108.718396	-7.664543	161.210698
1.150000	-7.941971	156.621100	-0.894604	-113.413455	-0.894604	-113.413455	-7.942397	156.599543
1.200000	-8.298887	151.953446	-0.834736	-118.182848	-0.834736	-118.182848	-8.299367	151.928830
1.250000	-8.743089	147.222117	-0.767299	-123.034531	-0.767299	-123.034531	-8.743636	147.193808
1.300000	-9.292436	142.420549	-0.694023	-127.981709	-0.694023	-127.981709	-9.293068	142.387668
1.350000	-9.964330	137.552053	-0.617416	-133.028523	-0.617416	-133.028523	-9.965074	137.513439
1.400000	-10.789432	132.622535	-0.539960	-138.183481	-0.539960	-138.183481	-10.790325	132.576490
1.450000	-11.805759	127.652455	-0.464463	-143.446426	-0.464463	-143.446426	-11.806864	127.596517
1.500000	-13.075025	122.680571	-0.393899	-148.817965	-0.393899	-148.817965	-13.076448	122.610807
1.550000	-14.693226	117.785331	-0.331197	-154.292151	-0.331197	-154.292151	-14.695169	117.695101
1.600000	-16.833941	113.146082	-0.279335	-159.860610	-0.279335	-159.860610	-16.836855	113.022415
1.650000	-19.856334	109.238074	-0.240888	-165.509681	-0.240888	-165.509681	-19.861510	109.051174
1.700000	-24.735332	108.296041	-0.218151	-171.221896	-0.218151	-171.221896	-24.749127	107.940141
1.750000	-34.400051	146.992271	-0.212128	-176.975818	-0.212128	-176.975818	-34.501949	146.719829
1.800000	-29.075950	-109.974557	-0.223669	177.249163	-0.223669	177.249163	-29.095506	-109.339722
1.850000	-21.958381	-106.541197	-0.254520	171.477293	-0.254520	171.477293	-21.960418	-106.236009
1.900000	-18.118715	-109.517744	-0.302400	165.732138	-0.302400	165.732138	-18.118708	-109.315039
1.950000	-15.529031	-113.915794	-0.365704	160.032327	-0.365704	160.032327	-15.528548	-113.760237
2.000000	-13.618183	-118.795942	-0.443351	154.400449	-0.443351	154.400449	-13.617564	-118.666361
2.050000	-12.137821	-123.837654	-0.532282	148.851146	-0.532282	148.851146	-12.137163	-123.724480
2.100000	-10.958131	-128.918605	-0.629319	143.394430	-0.629319	143.394430	-10.957465	-128.816541
2.150000	-10.003449	-133.979333	-0.731193	138.037152	-0.731193	138.037152	-10.002787	-133.885065
2.200000	-9.225036	-138.988541	-0.834523	132.781678	-0.834523	132.781678	-9.224378	-138.899829
2.250000	-8.588534	-143.931678	-0.935999	127.624753	-0.935999	127.624753	-8.587880	-143.846930
2.300000	-8.071678	-148.802343	-1.032343	122.562025	-1.032343	122.562025	-8.071024	-148.720323
2.350000	-7.655299	-153.604048	-1.120791	117.581778	-1.120791	117.581778	-7.654640	-153.523790
2.400000	-7.329354	-158.341445	-1.198303	112.673912	-1.198303	112.673912	-7.328686	-158.262100
2.450000	-7.085160	-163.025660	-1.262319	107.822381	-1.262319	107.822381	-7.084476	-162.946464
2.500000	-6.912156	-167.673034	-1.311855	103.006785	-1.311855	103.006785	-6.911450	-167.593311
2.550000	-6.810277	-172.296828	-1.344581	98.210045	-1.344581	98.210045	-6.809541	-172.215868
2.600000	-6.781903	-176.915631	-1.358317	93.408691	-1.358317	93.408691	-6.781124	-176.832651
2.650000	-6.823123	178.451555	-1.353701	88.579732	-1.353701	88.579732	-6.822291	178.537358
2.700000	-6.942064	173.784482	-1.329418	83.696373	-1.329418	83.696373	-6.941160	173.874080
2.750000	-7.147427	169.062064	-1.285530	78.729306	-1.285530	78.729306	-7.146428	169.156645
2.800000	-7.453824	164.263334	-1.222546	73.645564	-1.222546	73.645564	-7.452697	164.364433
2.850000	-7.877668	159.374696	-1.142636	68.416612	-1.142636	68.416612	-7.876365	159.484285
2.900000	-8.447935	154.386947	-1.048127	63.008448	-1.048127	63.008448	-8.446381	154.507762
2.950000	-9.212888	149.303288	-0.942258	57.378497	-0.942258	57.378497	-9.210957	149.439499
3.000000	-10.237294	144.166991	-0.830555	51.496882	-0.830555	51.496882	-10.234760	144.325041
3.050000	-11.633613	139.095241	-0.719807	45.331586	-0.719807	45.331586	-11.630013	139.286183
3.100000	-13.608529	134.414920	-0.618839	38.855075	-0.618839	38.855075	-13.602735	134.660536
3.150000	-16.593913	131.119774	-0.538040	32.058061	-0.538040	32.058061	-16.582282	131.470562
3.200000	-21.801489	134.042010	-0.489877	24.939968	-0.489877	24.939968	-21.762970	134.659883
3.250000	-30.312688	-163.869342	-0.487038	17.530302	-0.487038	17.530302	-30.052947	-163.899604
3.300000	-21.166108	-101.856972	-0.541793	9.882354	-0.541793	9.882354	-21.134854	-102.453520
3.350000	-15.387262	-99.765017	-0.665070	2.074859	-0.665070	2.074859	-15.379493	-100.084347
3.400000	-11.861747	-104.142755	-0.863627	-5.788862	-0.863627	-5.788862	-11.858580	-104.354481
3.450000	-9.398871	-110.163136	-1.138623	-13.595088	-1.138623	-13.595088	-9.397266	-110.319165
3.500000	-7.569123	-116.712701	-1.486506	-21.233947	-1.486506	-21.233947	-7.568208	-116.834987
3.550000	-6.167371	-123.351703	-1.899244	-28.610721	-1.899244	-28.610721	-6.166810	-123.451452
3.600000	-5.075466	-129.859297	-2.365715	-35.654288	-2.365715	-35.654288	-5.075106	-129.942970
3.650000	-4.216293	-136.115618	-2.873342	-42.320175	-2.873342	-42.320175	-4.216056	-136.187267
3.700000	-3.535373	-142.059020	-3.409560	-48.588856	-3.409560	-48.588856	-3.535214	-142.121351
3.750000	-2.992418	-147.664843	-3.962865	-54.461076	-3.962865	-54.461076	-2.992313	-147.719748
3.800000	-2.561362	-152.910197	-4.520853	-59.928100	-4.520853	-59.928100	-2.561292	-152.959119
3.850000	-2.207903	-157.861247	-5.081215	-65.072229	-5.081215	-65.072229	-2.207858	-157.905115
3.900000	-1.923808	-162.491011	-5.631843	-69.869446	-5.631843	-69.869446	-1.923781	-162.530663
3.950000	-1.690300	-166.853115	-6.172172	-74.380939	-6.172172	-74.380939	-1.690285	-166.889149
4.000000	-1.498326	-170.963636	-6.697080	-78.626106	-6.697080	-78.626106	-1.498321	-170.996547
4.050000	-1.340159	-174.843816	-7.203099	-82.628949	-7.203099	-82.628949	-1.340160	-174.874014
4.100000	-1.207284	-178.534110	-7.692381	-86.433034	-7.692381	-86.433034	-1.207290	-178.561906
4.150000	-1.097536	177.968581	-8.157460	-90.035934	-8.157460	-90.035934	-1.097547	177.942893
4.200000	-1.003776	174.614921	-8.605718	-93.489599	-8.605718	-93.489599	-1.003788	174.591135
4.250000	-0.925698	171.415537	-9.028430	-96.783468	-9.028430	-96.783468	-0.925713	171.393439
4.300000	-0.858590	168.331068	-9.432875	-99.958624	-9.432875	-99.958624	-0.858606	168.310507
4.350000	-0.801685	165.361165	-9.814581	-103.015705	-9.814581	-103.015705	-0.801702	165.341993
4.400000	-0.752866	162.487188	-10.175928	-105.974132	-10.175928	-105.974132	-0.752883	162.469285
4.450000	-0.711039	159.700777	-10.516086	-108.842687	-10.516086	-108.842687	-0.711057	159.684034
4.500000	-0.675401	156.995322	-10.833906	-111.628294	-10.833906	-111.628294	-0.675419	156.979642
4.550000	-0.644564	154.355277	-11.132434	-114.347019	-11.132434	-114.347019	-0.644582	154.340580
4.600000	-0.617376	151.765743	-11.415974	-117.014142	-11.415974	-117.014142	-0.617394	151.751969
4.650000	-0.593772	149.226918	-11.681951	-119.629511	-11.681951	-119.629511	-0.593790	149.214007
4.700000	-0.574326	146.748125	-11.921354	-122.183702	-11.921354	-122.183702	-0.574344	146.736003
4.750000	-0.557178	144.302141	-12.146638	-124.704489	-12.146638	-124.704489	-0.557195	144.290767
4.800000	-0.542184	141.886775	-12.357332	-127.194109	-12.357332	-127.194109	-0.542201	141.876111
4.850000	-0.529770	139.507385	-12.546763	-129.647119	-12.546763	-129.647119	-0.529787	139.497385
4.900000	-0.519421	137.155011	-12.717599	-132.072628	-12.717599	-132.072628	-0.519437	137.145639
4.950000	-0.510561	134.820928	-12.874625	-134.479505	-12.874625	-134.479505	-0.510576	134.812158
5.000000	-0.503109	132.503458	-13.017608	-136.869447	-13.017608	-136.869447	-0.503124	132.495266
5.050000	-0.498156	130.210113	-13.130991	-139.234709	-13.130991	-139.234709	-0.498170	130.202458
5.100000	-0.493205	127.916767	-13.245874	-141.599971	-13.245874	-141.599971	-0.493219	127.909650
5.150000	-0.490663	125.638801	-13.329372	-143.949334	-13.329372	-143.949334	-0.490676	125.632187
5.200000	-0.488341	123.362233	-13.410665	-146.297252	-13.410665	-146.297252	-0.488353	123.356119
5.250000	-0.487983	121.089252	-13.464601	-148.641205	-13.464601	-148.641205	-0.487994	121.083615
5.300000	-0.488017	118.816988	-13.513225	-150.984364	-13.513225	-150.984364	-0.488027	118.811824
5.350000	-0.489715	116.539260	-13.537858	-153.332758	-13.537858	-153.332758	-0.489724	116.534554
5.400000	-0.491968	114.259709	-13.554464	-155.682897	-13.554464	-155.682897	-0.491975	114.255459
5.450000	-0.495313	111.971874	-13.555242	-158.041255	-13.555242	-158.041255	-0.495319	111.968073
5.500000	-0.499896	109.672431	-13.538238	-160.411208	-13.538238	-160.411208	-0.499901	109.669075
5.550000	-0.505557	107.359936	-13.506133	-162.794296	-13.506133	-162.794296	-0.505560	107.357025
5.600000	-0.512328	105.031852	-13.458932	-165.193154	-13.458932	-165.193154	-0.512329	105.029385
5.650000	-0.520256	102.685602	-13.396622	-167.610473	-13.396622	-167.610473	-0.520255	102.683583
5.700000	-0.529400	100.318553	-13.319170	-170.049022	-13.319170	-170.049022	-0.529397	100.316986
5.750000	-0.539836	97.927992	-13.226523	-172.511671	-13.226523	-172.511671	-0.539830	97.926885
5.800000	-0.551654	95.511110	-13.118609	-175.001415	-13.118609	-175.001415	-0.551645	95.510473
5.850000	-0.564965	93.064976	-12.995339	-177.521396	-12.995339	-177.521396	-0.564953	93.064820
5.900000	-0.579900	90.586511	-12.856603	179.925064	-12.856603	179.925064	-0.579885	90.586851
5.950000	-0.596614	88.072464	-12.702274	177.334437	-12.702274	177.334437	-0.596595	88.073317
6.000000	-0.615291	85.519381	-12.532206	174.702953	-12.532206	174.702953	-0.615267	85.520769
6.050000	-0.636147	82.923570	-12.346238	172.026565	-12.346238	172.026565	-0.636118	82.925518
6.100000	-0.659437	80.281067	-12.144191	169.300905	-12.144191	169.300905	-0.659401	80.283603
6.150000	-0.685460	77.587590	-11.925873	166.521237	-11.925873	166.521237	-0.685418	77.590747
6.200000	-0.714574	74.838493	-11.691076	163.682402	-11.691076	163.682402	-0.714523	74.842311
6.250000	-0.747197	72.028713	-11.439586	160.778759	-11.439586	160.778759	-0.747138	72.033237
6.300000	-0.784026	69.149536	-11.170040	157.800696	-11.170040	157.800696	-0.783956	69.154819
6.350000	-0.825524	66.197421	-10.883222	154.744098	-10.883222	154.744098	-0.825441	66.203526
6.400000	-0.872422	63.165547	-10.578899	151.601282	-10.578899	151.601282	-0.872325	63.172543
6.450000	-0.925606	60.046354	-10.256855	148.363705	-10.256855	148.363705	-0.925492	60.054324
6.500000	-0.986144	56.831451	-9.916897	145.021842	-9.916897	145.021842	-0.986011	56.840490
6.550000	-1.055340	53.511501	-9.558881	141.565040	-9.558881	141.565040	-1.055184	53.521719
6.600000	-1.134788	50.076107	-9.182727	137.981362	-9.182727	137.981362	-1.134606	50.087635
6.650000	-1.226451	46.513697	-8.788456	134.257420	-8.788456	134.257420	-1.226237	46.526690
6.700000	-1.330928	42.829078	-8.380604	130.397890	-8.380604	130.397890	-1.330677	42.843692
6.750000	-1.455376	38.967124	-7.949201	126.340363	-7.949201	126.340363	-1.455080	38.983609
6.800000	-1.599811	34.947870	-7.503634	122.105864	-7.503634	122.105864	-1.599462	34.966468
6.850000	-1.771403	30.733933	-7.040238	117.650349	-7.040238	117.650349	-1.770989	30.754974
6.900000	-1.974721	26.318501	-6.562825	112.963527	-6.562825	112.963527	-1.974226	26.342365
6.950000	-2.217382	21.683009	-6.073340	108.020291	-6.073340	108.020291	-2.216788	21.710171
7.000000	-2.511503	16.795647	-5.572450	102.777703	-5.572450	102.777703	-2.510783	16.826736
7.050000	-2.864230	11.669331	-5.068062	97.243152	-5.068062	97.243152	-2.863353	11.705061
7.100000	-3.297786	6.262756	-4.561080	91.352585	-4.561080	91.352585	-3.296701	6.304158
7.150000	-3.832818	0.581376	-4.059261	85.088502	-4.059261	85.088502	-3.831455	0.629807
7.200000	-4.496873	-5.354968	-3.571137	78.436225	-3.571137	78.436225	-4.495128	-5.297671
7.250000	-5.328032	-11.500530	-3.106383	71.385577	-3.106383	71.385577	-5.325741	-11.431764
7.300000	-6.378559	-17.758144	-2.676015	63.940629	-2.676015	63.940629	-6.375450	-17.674063
7.350000	-7.723170	-23.937750	-2.291804	56.124467	-2.291804	56.124467	-7.718747	-23.832372
7.400000	-9.475684	-29.662929	-1.965304	47.982760	-1.965304	47.982760	-9.468944	-29.526323
7.450000	-11.825904	-34.112061	-1.706562	39.584564	-1.706562	39.584564	-11.814469	-33.926487
7.500000	-15.124048	-35.100839	-1.522732	31.019013	-1.522732	31.019013	-15.100774	-34.833690
7.550000	-19.909515	-24.112023	-1.418051	22.388272	-1.418051	22.388272	-19.845275	-23.752045
7.600000	-23.271537	23.932767	-1.389825	13.797624	-1.389825	13.797624	-23.150672	23.701282
7.650000	-18.918240	61.132975	-1.432177	5.339591	-1.432177	5.339591	-18.880613	60.668139
7.700000	-14.885269	67.968826	-1.536069	-2.912072	-1.536069	-2.912072	-14.873816	67.639406
7.750000	-12.175321	66.371515	-1.690684	-10.906607	-1.690684	-10.906607	-12.171094	66.123554
7.800000	-10.263334	62.153561	-1.884753	-18.616207	-1.884753	-18.616207	-10.261838	61.952852
7.850000	-8.850802	56.950979	-2.107612	-26.032883	-2.107612	-26.032883	-8.850577	56.780205
7.900000	-7.773628	51.366175	-2.349862	-33.163819	-2.349862	-33.163819	-7.774084	51.215767
7.950000	-6.935268	45.657862	-2.603642	-40.022967	-2.603642	-40.022967	-6.936125	45.522001
8.000000	-6.274320	39.949141	-2.862261	-46.629086	-2.862261	-46.629086	-6.275434	39.824044
8.050000	-5.737776	34.286155	-3.121927	-53.033836	-3.121927	-53.033836	-5.739069	34.169488
8.100000	-5.305522	28.696471	-3.378282	-59.240259	-3.378282	-59.240259	-5.306943	28.586365
8.150000	-4.951557	23.180847	-3.629585	-65.284917	-3.629585	-65.284917	-4.953077	23.076006
8.200000	-4.659767	17.735442	-3.874311	-71.192094	-3.874311	-71.192094	-4.661364	17.634898
8.250000	-4.420443	12.355845	-4.110742	-76.976629	-4.110742	-76.976629	-4.422104	12.258806
8.300000	-4.219660	7.025363	-4.340149	-82.670599	-4.340149	-82.670599	-4.221373	6.931285
8.350000	-4.054819	1.740413	-4.560465	-88.278276	-4.560465	-88.278276	-4.056576	1.648798
8.400000	-3.917097	-3.513757	-4.773254	-93.822895	-4.773254	-93.822895	-3.918892	-3.603265
8.450000	-3.802331	-8.746079	-4.978740	-99.316050	-4.978740	-99.316050	-3.804157	-8.833768
8.500000	-3.706675	-13.965396	-5.177548	-104.768935	-5.177548	-104.768935	-3.708527	-14.051494
8.550000	-3.626958	-19.179555	-5.370407	-110.191006	-5.370407	-110.191006	-3.628830	-19.264240
8.600000	-3.560533	-24.395372	-5.558109	-115.590146	-5.558109	-115.590146	-3.562419	-24.478778
8.650000	-3.505162	-29.618627	-5.741486	-120.972816	-5.741486	-120.972816	-3.507057	-29.700856
8.700000	-3.458932	-34.854093	-5.921388	-126.344189	-5.921388	-126.344189	-3.460829	-34.935213
8.750000	-3.420189	-40.105557	-6.098667	-131.708276	-6.098667	-131.708276	-3.422083	-40.185611
8.800000	-3.387644	-45.376527	-6.274008	-137.067958	-6.274008	-137.067958	-3.389528	-45.455534
8.850000	-3.359794	-50.668331	-6.448428	-142.425412	-6.448428	-142.425412	-3.361662	-50.746289
8.900000	-3.335521	-55.981927	-6.622696	-147.781714	-6.622696	-147.781714	-3.337366	-56.058814
8.950000	-3.313830	-61.317440	-6.797537	-153.137190	-6.797537	-153.137190	-3.315646	-61.393221
9.000000	-3.293832	-66.674207	-6.973624	-158.491490	-6.973624	-158.491490	-3.295612	-66.748830
9.050000	-3.274734	-72.050820	-7.151577	-163.843672	-7.151577	-163.843672	-3.276473	-72.124224
9.100000	-3.255832	-77.445176	-7.331951	-169.192276	-7.331951	-169.192276	-3.257524	-77.517291
9.150000	-3.236508	-82.854538	-7.515239	-174.535400	-7.515239	-174.535400	-3.238148	-82.925284
9.200000	-3.216362	-88.274750	-7.701906	-179.871731	-7.701906	-179.871731	-3.217946	-88.344052
9.250000	-3.194721	-93.704056	-7.892219	174.802814	-7.892219	174.802814	-3.196244	-93.771821
9.300000	-3.171283	-99.137119	-8.086524	169.490422	-8.086524	169.490422	-3.172742	-99.203259
9.350000	-3.145745	-104.569329	-8.285040	164.194081	-8.285040	164.194081	-3.147138	-104.633757
9.400000	-3.117512	-109.994238	-8.487865	158.920060	-8.487865	158.920060	-3.118838	-110.056859
9.450000	-3.087121	-115.408939	-8.695161	153.665915	-8.695161	153.665915	-3.088379	-115.469688
9.500000	-3.054176	-120.807507	-8.906917	148.437284	-8.906917	148.437284	-3.055365	-120.866312
9.550000	-3.018662	-126.184739	-9.123096	143.237260	-9.123096	143.237260	-3.019783	-126.241539
9.600000	-2.980628	-131.535485	-9.343608	138.068843	-9.343608	138.068843	-2.981685	-131.590227
9.650000	-2.940181	-136.854721	-9.568314	132.934901	-9.568314	132.934901	-2.941174	-136.907364
9.700000	-2.897476	-142.137614	-9.797030	127.838145	-9.797030	127.838145	-2.898409	-142.188128
9.750000	-2.852712	-147.379573	-10.029533	122.781096	-10.029533	122.781096	-2.853589	-147.427941
9.800000	-2.806125	-152.576301	-10.265570	117.766073	-10.265570	117.766073	-2.806950	-152.622519
9.850000	-2.757979	-157.723829	-10.504859	112.795176	-10.504859	112.795176	-2.758757	-157.767903
9.900000	-2.708560	-162.818541	-10.747096	107.870279	-10.747096	107.870279	-2.709295	-162.860491
9.950000	-2.658167	-167.857191	-10.991960	102.993027	-10.991960	102.993027	-2.658865	-167.897049
10.000000	-2.607107	-172.836912	-11.239122	98.164835	-11.239122	98.164835	-2.607773	-172.874721
