! freq	dB(S11)	phase(S11)	dB(S12)	phase(S12)	
!     	dB(S21)	phase(S21)	dB(S22)	phase(S22)	
!S-par simulation data
#  GHz  S  DB  R 50
0.000000	-84.797336	0.000000	-0.000500	0.000000	-0.000500	0.000000	-84.797336	0.000000
0.050000	-38.325129	-92.202906	-0.004790	-3.098595	-0.004790	-3.098595	-38.342664	-93.554724
0.100000	-32.343528	-94.847697	-0.012274	-6.163304	-0.012274	-6.163304	-32.357035	-97.531647
0.150000	-28.870856	-97.409522	-0.019767	-9.212286	-0.019767	-9.212286	-28.882528	-101.417610
0.200000	-26.424449	-99.928078	-0.027703	-12.255763	-0.027703	-12.255763	-26.436269	-105.264870
0.250000	-24.540214	-102.407239	-0.036536	-15.295247	-0.036536	-15.295247	-24.552911	-109.077806
0.300000	-23.012367	-104.854234	-0.046409	-18.330357	-0.046409	-18.330357	-23.025852	-112.860293
0.350000	-21.731486	-107.277089	-0.057292	-21.360657	-0.057292	-21.360657	-21.745343	-116.617844
0.400000	-20.632950	-109.681492	-0.069119	-24.385764	-0.069119	-24.385764	-20.646703	-120.355025
0.450000	-19.675730	-112.071078	-0.081823	-27.405287	-0.081823	-27.405287	-19.688942	-124.075182
0.500000	-18.830891	-114.448823	-0.095280	-30.419250	-0.095280	-30.419250	-18.843228	-127.781592
0.550000	-18.078822	-116.815923	-0.109416	-33.427380	-0.109416	-33.427380	-18.090029	-131.475804
0.600000	-17.404433	-119.173440	-0.124131	-36.429651	-0.124131	-36.429651	-17.414333	-135.159333
0.650000	-16.796534	-121.521900	-0.139334	-39.425959	-0.139334	-39.425959	-16.805011	-138.833090
0.700000	-16.246306	-123.861709	-0.154931	-42.416262	-0.154931	-42.416262	-16.253287	-142.497802
0.750000	-15.746806	-126.193148	-0.170825	-45.400529	-0.170825	-45.400529	-15.752247	-146.153991
0.800000	-15.292448	-128.516465	-0.186921	-48.378761	-0.186921	-48.378761	-15.296325	-149.802065
0.850000	-14.878675	-130.831908	-0.203120	-51.351002	-0.203120	-51.351002	-14.880974	-153.442362
0.900000	-14.501524	-133.139833	-0.219320	-54.317405	-0.219320	-54.317405	-14.502240	-157.075249
0.950000	-14.157976	-135.440508	-0.235423	-57.278079	-0.235423	-57.278079	-14.157102	-160.700950
1.000000	-13.845471	-137.734280	-0.251324	-60.233207	-0.251324	-60.233207	-13.843001	-164.319699
1.050000	-13.561615	-140.021643	-0.266924	-63.183106	-0.266924	-63.183106	-13.557537	-167.931823
1.100000	-13.304505	-142.303093	-0.282125	-66.128104	-0.282125	-66.128104	-13.298804	-171.537600
1.150000	-13.072527	-144.579195	-0.296829	-69.068593	-0.296829	-69.068593	-13.065180	-175.137318
1.200000	-12.864313	-146.850578	-0.310941	-72.005024	-0.310941	-72.005024	-12.855290	-178.731280
1.250000	-12.678711	-149.117944	-0.324371	-74.937909	-0.324371	-74.937909	-12.667975	177.680196
1.300000	-12.515053	-151.382027	-0.337015	-77.867780	-0.337015	-77.867780	-12.502553	174.096857
1.350000	-12.372251	-153.643743	-0.348802	-80.795327	-0.348802	-80.795327	-12.357928	170.518270
1.400000	-12.249666	-155.904020	-0.359654	-83.721240	-0.359654	-83.721240	-12.233452	166.944085
1.450000	-12.146806	-158.163861	-0.369498	-86.646263	-0.369498	-86.646263	-12.128620	163.373947
1.500000	-12.063313	-160.424350	-0.378268	-89.571192	-0.378268	-89.571192	-12.043059	159.807509
1.550000	-11.998964	-162.686656	-0.385903	-92.496878	-0.385903	-92.496878	-11.976533	156.244433
1.600000	-11.953662	-164.952034	-0.392351	-95.424219	-0.392351	-95.424219	-11.928928	152.684404
1.650000	-11.927445	-167.221829	-0.397567	-98.354163	-0.397567	-98.354163	-11.900263	149.127143
1.700000	-11.920405	-169.497454	-0.401519	-101.287682	-0.401519	-101.287682	-11.890612	145.572408
1.750000	-11.932902	-171.780469	-0.404175	-104.225820	-0.404175	-104.225820	-11.900310	142.020039
1.800000	-11.965655	-174.072676	-0.405499	-107.169743	-0.405499	-107.169743	-11.930047	138.469988
1.850000	-12.019364	-176.375961	-0.405478	-110.120627	-0.405478	-110.120627	-11.980490	134.922304
1.900000	-12.094206	-178.691908	-0.404155	-113.079406	-0.404155	-113.079406	-12.051788	131.377107
1.950000	-12.191393	178.977284	-0.401528	-116.047332	-0.401528	-116.047332	-12.145108	127.834800
2.000000	-12.312977	176.628650	-0.397575	-119.026027	-0.397575	-119.026027	-12.262441	124.296158
2.050000	-12.459413	174.260465	-0.392394	-122.016254	-0.392394	-122.016254	-12.404191	120.761973
2.100000	-12.632465	171.870037	-0.386035	-125.019232	-0.386035	-125.019232	-12.572051	117.233557
2.150000	-12.835603	169.452875	-0.378505	-128.036988	-0.378505	-128.036988	-12.769374	113.713227
2.200000	-13.070326	167.006511	-0.369937	-131.070195	-0.369937	-131.070195	-12.997561	110.203279
2.250000	-13.339590	164.527124	-0.360435	-134.120013	-0.360435	-134.120013	-13.259418	106.707071
2.300000	-13.648229	162.008546	-0.350090	-137.188364	-0.350090	-137.188364	-13.559567	103.230002
2.350000	-14.000640	159.445212	-0.339061	-140.276376	-0.339061	-140.276376	-13.902146	99.778513
2.400000	-14.401711	156.831296	-0.327538	-143.384841	-0.327538	-143.384841	-14.291713	96.360507
2.450000	-14.859652	154.156147	-0.315702	-146.515861	-0.315702	-146.515861	-14.735968	92.989075
2.500000	-15.383302	151.408348	-0.303758	-149.670847	-0.303758	-149.670847	-15.243062	89.680721
2.550000	-15.985034	148.570396	-0.291889	-152.851711	-0.291889	-152.851711	-15.824326	86.460840
2.600000	-16.679952	145.620301	-0.280277	-156.059395	-0.280277	-156.059395	-16.493314	83.363769
2.650000	-17.489151	142.524353	-0.269148	-159.294848	-0.269148	-159.294848	-17.268627	80.442166
2.700000	-18.442141	139.230355	-0.258781	-162.558915	-0.258781	-162.558915	-18.175572	77.778052
2.750000	-19.581930	135.652377	-0.249497	-165.852433	-0.249497	-165.852433	-19.249622	75.505515
2.800000	-20.974511	131.637485	-0.241641	-169.176210	-0.241641	-169.176210	-20.542160	73.857677
2.850000	-22.728867	126.872062	-0.235599	-172.531216	-0.235599	-172.531216	-22.130388	73.288918
2.900000	-25.038667	120.636620	-0.231754	-175.917858	-0.231754	-175.917858	-24.128910	74.742745
2.950000	-28.289332	110.824274	-0.230509	-179.336431	-0.230509	-179.336431	-26.685536	80.473797
3.000000	-33.195313	88.592273	-0.232288	177.212894	-0.232288	177.212894	-29.736634	96.280766
3.050000	-36.523286	23.242481	-0.237538	173.730189	-0.237538	173.730189	-31.454862	129.941572
3.100000	-30.913193	-25.456694	-0.246715	170.215788	-0.246715	170.215788	-29.195123	162.768203
3.150000	-26.278591	-41.417257	-0.260317	166.670151	-0.260317	166.670151	-25.784242	177.553428
3.200000	-23.047246	-49.751837	-0.278829	163.094232	-0.278829	163.094232	-22.903587	-177.270434
3.250000	-20.598320	-55.609274	-0.302709	159.489473	-0.302709	159.489473	-20.577583	-176.181428
3.300000	-18.628535	-60.387322	-0.332431	155.857492	-0.332431	155.857492	-18.657004	-177.073252
3.350000	-16.980721	-64.611236	-0.368463	152.200259	-0.368463	152.200259	-17.029902	-179.051291
3.400000	-15.564629	-68.519154	-0.411254	148.520102	-0.411254	148.520102	-15.622067	178.315436
3.450000	-14.324034	-72.232911	-0.461250	144.819656	-0.461250	144.819656	-14.383808	175.257135
3.500000	-13.221732	-75.820519	-0.518888	141.101901	-0.518888	141.101901	-13.280874	171.908329
3.550000	-12.232072	-79.323071	-0.584464	137.370361	-0.584464	137.370361	-12.289070	168.355901
3.600000	-11.336378	-82.764737	-0.658285	133.628689	-0.658285	133.628689	-11.390452	164.655655
3.650000	-10.520727	-86.160449	-0.740604	129.880794	-0.740604	129.880794	-10.571489	160.846877
3.700000	-9.774452	-89.519305	-0.831617	126.130799	-0.831617	126.130799	-9.821725	156.958516
3.750000	-9.089177	-92.846584	-0.931455	122.382989	-0.931455	122.382989	-9.132905	153.012790
3.800000	-8.458254	-96.144692	-1.040263	118.641877	-1.040263	118.641877	-8.498439	149.027109
3.850000	-7.876145	-99.414875	-1.157951	114.911878	-1.157951	114.911878	-7.912831	145.016495
3.900000	-7.338252	-102.656863	-1.284443	111.197413	-1.284443	111.197413	-7.371499	140.993056
3.950000	-6.840667	-105.869591	-1.419596	107.502823	-1.419596	107.502823	-6.870543	136.967168
4.000000	-6.380020	-109.051484	-1.563201	103.832314	-1.563201	103.832314	-6.406596	132.947838
4.050000	-5.953360	-112.200673	-1.714989	100.189902	-1.714989	100.189902	-5.976706	128.942953
4.100000	-5.558168	-115.314851	-1.874671	96.579657	-1.874671	96.579657	-5.578350	124.959677
4.150000	-5.192030	-118.392162	-2.041835	93.004950	-2.041835	93.004950	-5.209112	121.004066
4.200000	-4.852773	-121.430770	-2.216046	89.468876	-2.216046	89.468876	-4.866821	117.081392
4.250000	-4.538443	-124.428899	-2.396853	85.974281	-2.396853	85.974281	-4.549519	113.196307
4.300000	-4.247241	-127.384976	-2.583772	82.523663	-2.583772	82.523663	-4.255406	109.352836
4.350000	-3.977502	-130.297666	-2.776302	79.119165	-2.776302	79.119165	-3.982816	105.554421
4.400000	-3.727748	-133.165641	-2.973929	75.762843	-2.973929	75.762843	-3.730268	101.804242
4.450000	-3.496533	-135.988076	-3.176117	72.456155	-3.176117	72.456155	-3.496318	98.104736
4.500000	-3.282601	-138.764043	-3.382325	69.200631	-3.382325	69.200631	-3.279708	94.458299
4.550000	-3.084453	-141.494257	-3.592052	65.995949	-3.592052	65.995949	-3.078941	90.865297
4.600000	-2.901016	-144.178300	-3.804788	62.842997	-3.804788	62.842997	-2.892943	87.327272
4.650000	-2.731203	-146.816356	-4.020043	59.741985	-4.020043	59.741985	-2.720625	83.844998
4.700000	-2.574000	-149.408811	-4.237343	56.692876	-4.237343	56.692876	-2.560975	80.418942
4.750000	-2.428465	-151.956234	-4.456234	53.695414	-4.456234	53.695414	-2.413050	77.049294
4.800000	-2.293720	-154.459355	-4.676283	50.749146	-4.676283	50.749146	-2.275972	73.736004
4.850000	-2.168953	-156.919045	-4.897079	47.853452	-4.897079	47.853452	-2.148926	70.478811
4.900000	-2.053406	-159.336292	-5.118238	45.007564	-5.118238	45.007564	-2.031156	67.277274
4.950000	-1.946379	-161.712182	-5.339396	42.210590	-5.339396	42.210590	-1.921961	64.130796
5.000000	-1.847224	-164.047883	-5.560215	39.461538	-5.560215	39.461538	-1.820691	61.038650
5.050000	-1.755466	-166.343806	-5.780239	36.760318	-5.780239	36.760318	-1.726871	58.001143
5.100000	-1.670407	-168.602103	-5.999307	34.104740	-5.999307	34.104740	-1.639803	55.016165
5.150000	-1.591537	-170.824085	-6.217154	31.493604	-6.217154	31.493604	-1.558975	52.082717
5.200000	-1.518383	-173.011084	-6.433532	28.925673	-6.433532	28.925673	-1.483915	49.199748
5.250000	-1.450513	-175.164438	-6.648216	26.399687	-6.648216	26.399687	-1.414188	46.366167
5.300000	-1.387524	-177.285489	-6.860999	23.914369	-6.860999	23.914369	-1.349394	43.580852
5.350000	-1.329049	-179.375568	-7.071691	21.468438	-7.071691	21.468438	-1.289162	40.842665
5.400000	-1.274747	178.564005	-7.280122	19.060614	-7.280122	19.060614	-1.233152	38.150456
5.450000	-1.224306	176.531930	-7.486135	16.689627	-7.486135	16.689627	-1.181053	35.503073
5.500000	-1.177438	174.526933	-7.689587	14.354218	-7.689587	14.354218	-1.132574	32.899369
5.550000	-1.133877	172.547764	-7.890351	12.053147	-7.890351	12.053147	-1.087453	30.338204
5.600000	-1.093380	170.593205	-8.088311	9.785198	-8.088311	9.785198	-1.045444	27.818450
5.650000	-1.055749	168.662313	-8.283284	7.549510	-8.283284	7.549510	-1.006352	25.339423
5.700000	-1.020772	166.753895	-8.475178	5.344878	-8.475178	5.344878	-0.969963	22.899995
5.750000	-0.988229	164.866584	-8.663991	3.169819	-8.663991	3.169819	-0.936061	20.498658
5.800000	-0.957947	162.999299	-8.849648	1.023229	-8.849648	1.023229	-0.904471	18.134369
5.850000	-0.929765	161.150997	-9.032085	-1.095969	-9.032085	-1.095969	-0.875034	15.806103
5.900000	-0.903534	159.320670	-9.211241	-3.188818	-9.211241	-3.188818	-0.847603	13.512866
5.950000	-0.879118	157.507344	-9.387066	-5.256330	-9.387066	-5.256330	-0.822043	11.253685
6.000000	-0.856392	155.710083	-9.559514	-7.299484	-9.559514	-7.299484	-0.798229	9.027615
6.050000	-0.835299	153.928590	-9.728259	-9.318268	-9.728259	-9.318268	-0.776110	6.835083
6.100000	-0.815593	152.160599	-9.893913	-11.315796	-9.893913	-11.315796	-0.755436	4.672135
6.150000	-0.797257	150.406081	-10.056083	-13.291701	-10.056083	-13.291701	-0.736193	2.539635
6.200000	-0.780199	148.664228	-10.214741	-15.246841	-10.214741	-15.246841	-0.718293	0.436737
6.250000	-0.764333	146.934265	-10.369865	-17.182045	-10.369865	-17.182045	-0.701653	-1.637378
6.300000	-0.749627	145.215897	-10.521170	-19.097316	-10.521170	-19.097316	-0.686243	-3.682328
6.350000	-0.735958	143.507892	-10.668915	-20.994289	-10.668915	-20.994289	-0.671942	-5.700133
6.400000	-0.723260	141.809565	-10.813087	-22.873705	-10.813087	-22.873705	-0.658685	-7.691543
6.450000	-0.711471	140.120257	-10.953675	-24.736276	-10.953675	-24.736276	-0.646413	-9.657283
6.500000	-0.700536	138.439334	-11.090669	-26.582691	-11.090669	-26.582691	-0.635072	-11.598058
6.550000	-0.690401	136.766187	-11.224061	-28.413613	-11.224061	-28.413613	-0.624612	-13.514554
6.600000	-0.681018	135.100230	-11.353846	-30.229681	-11.353846	-30.229681	-0.614988	-15.407435
6.650000	-0.672342	133.440901	-11.480020	-32.031508	-11.480020	-32.031508	-0.606155	-17.277349
6.700000	-0.664331	131.787657	-11.602578	-33.819689	-11.602578	-33.819689	-0.598076	-19.124925
6.750000	-0.656947	130.139979	-11.721519	-35.594793	-11.721519	-35.594793	-0.590713	-20.950773
6.800000	-0.650155	128.497365	-11.836840	-37.357369	-11.836840	-37.357369	-0.584033	-22.755491
6.850000	-0.643919	126.859335	-11.948543	-39.107945	-11.948543	-39.107945	-0.578006	-24.539656
6.900000	-0.638211	125.225424	-12.056626	-40.847031	-12.056626	-40.847031	-0.572602	-26.303833
6.950000	-0.633002	123.595188	-12.161091	-42.575115	-12.161091	-42.575115	-0.567796	-28.048572
7.000000	-0.628265	121.968198	-12.261938	-44.292667	-12.261938	-44.292667	-0.563564	-29.774411
7.050000	-0.623976	120.344040	-12.359169	-46.000141	-12.359169	-46.000141	-0.559883	-31.481871
7.100000	-0.620113	118.722318	-12.452786	-47.697970	-12.452786	-47.697970	-0.556732	-33.171465
7.150000	-0.616654	117.102650	-12.542792	-49.386574	-12.542792	-49.386574	-0.554093	-34.843692
7.200000	-0.613581	115.484667	-12.629188	-51.066354	-12.629188	-51.066354	-0.551948	-36.499041
7.250000	-0.610876	113.868015	-12.711978	-52.737697	-12.711978	-52.737697	-0.550282	-38.137989
7.300000	-0.608524	112.252352	-12.791165	-54.400974	-12.791165	-54.400974	-0.549079	-39.761006
7.350000	-0.606508	110.637350	-12.866752	-56.056543	-12.866752	-56.056543	-0.548327	-41.368550
7.400000	-0.604816	109.022692	-12.938743	-57.704747	-12.938743	-57.704747	-0.548012	-42.961072
7.450000	-0.603436	107.408073	-13.007141	-59.345918	-13.007141	-59.345918	-0.548125	-44.539015
7.500000	-0.602355	105.793200	-13.071952	-60.980375	-13.071952	-60.980375	-0.548654	-46.102813
7.550000	-0.601577	104.177751	-13.133007	-62.608162	-13.133007	-62.608162	-0.549608	-47.652319
7.600000	-0.601080	102.561467	-13.190489	-64.229868	-13.190489	-64.229868	-0.550961	-49.188569
7.650000	-0.600855	100.944087	-13.244405	-65.845783	-13.244405	-65.845783	-0.552706	-50.711978
7.700000	-0.600896	99.325358	-13.294761	-67.456191	-13.294761	-67.456191	-0.554835	-52.222957
7.750000	-0.601197	97.705035	-13.341564	-69.061369	-13.341564	-69.061369	-0.557344	-53.721910
7.800000	-0.601752	96.082886	-13.384823	-70.661594	-13.384823	-70.661594	-0.560228	-55.209240
7.850000	-0.602558	94.458684	-13.424547	-72.257144	-13.424547	-72.257144	-0.563482	-56.685344
7.900000	-0.603612	92.832209	-13.460747	-73.848297	-13.460747	-73.848297	-0.567104	-58.150618
7.950000	-0.604911	91.203252	-13.493434	-75.435342	-13.493434	-75.435342	-0.571091	-59.605454
8.000000	-0.606453	89.571610	-13.522620	-77.018576	-13.522620	-77.018576	-0.575440	-61.050241
8.050000	-0.608237	87.937085	-13.548318	-78.598312	-13.548318	-78.598312	-0.580152	-62.485370
8.100000	-0.610264	86.299488	-13.570541	-80.174882	-13.570541	-80.174882	-0.585225	-63.911228
8.150000	-0.612535	84.658637	-13.589302	-81.748639	-13.589302	-81.748639	-0.590659	-65.328202
8.200000	-0.615051	83.014352	-13.604611	-83.319964	-13.604611	-83.319964	-0.596457	-66.736681
8.250000	-0.617814	81.366464	-13.616477	-84.889266	-13.616477	-84.889266	-0.602620	-68.137053
8.300000	-0.620828	79.714805	-13.624906	-86.456986	-13.624906	-86.456986	-0.609150	-69.529707
8.350000	-0.624097	78.059215	-13.629898	-88.023589	-13.629898	-88.023589	-0.616050	-70.915036
8.400000	-0.627625	76.399537	-13.631447	-89.589568	-13.631447	-89.589568	-0.623327	-72.293433
8.450000	-0.631419	74.735619	-13.629540	-91.155431	-13.629540	-91.155431	-0.630983	-73.665296
8.500000	-0.635485	73.067313	-13.624155	-92.721693	-13.624155	-92.721693	-0.639026	-75.031026
8.550000	-0.639831	71.394474	-13.615262	-94.288865	-13.615262	-94.288865	-0.647463	-76.391026
8.600000	-0.644464	69.716960	-13.602822	-95.857437	-13.602822	-95.857437	-0.656301	-77.745709
8.650000	-0.649393	68.034634	-13.586787	-97.427866	-13.586787	-97.427866	-0.665550	-79.095489
8.700000	-0.654630	66.347360	-13.567105	-99.000564	-13.567105	-99.000564	-0.675220	-80.440788
8.750000	-0.660184	64.655002	-13.543717	-100.575886	-13.543717	-100.575886	-0.685323	-81.782037
8.800000	-0.666084	62.957196	-13.516393	-102.154266	-13.516393	-102.154266	-0.695891	-83.119536
8.850000	-0.672327	61.254031	-13.485239	-103.735821	-13.485239	-103.735821	-0.706920	-84.453908
8.900000	-0.678928	59.545375	-13.450202	-105.320733	-13.450202	-105.320733	-0.718426	-85.785611
8.950000	-0.685903	57.831097	-13.411233	-106.909148	-13.411233	-106.909148	-0.730427	-87.115113
9.000000	-0.693267	56.111064	-13.368294	-108.501193	-13.368294	-108.501193	-0.742943	-88.442891
9.050000	-0.701039	54.385142	-13.321352	-110.096989	-13.321352	-110.096989	-0.755994	-89.769438
9.100000	-0.709237	52.653196	-13.270386	-111.696668	-13.270386	-111.696668	-0.769604	-91.095259
9.150000	-0.717881	50.915085	-13.215378	-113.300389	-13.215378	-113.300389	-0.783799	-92.420874
9.200000	-0.726993	49.170667	-13.156320	-114.908345	-13.156320	-114.908345	-0.798607	-93.746817
9.250000	-0.736594	47.419795	-13.093210	-116.520776	-13.093210	-116.520776	-0.814059	-95.073640
9.300000	-0.746710	45.662315	-13.026047	-118.137970	-13.026047	-118.137970	-0.830189	-96.401915
9.350000	-0.757366	43.898068	-12.954838	-119.760272	-12.954838	-119.760272	-0.847032	-97.732230
9.400000	-0.768590	42.126886	-12.879588	-121.388081	-12.879588	-121.388081	-0.864630	-99.065196
9.450000	-0.780411	40.348593	-12.800306	-123.021854	-12.800306	-123.021854	-0.883027	-100.401445
9.500000	-0.792860	38.563005	-12.717003	-124.662103	-12.717003	-124.662103	-0.902271	-101.741633
9.550000	-0.805970	36.769922	-12.629690	-126.309398	-12.629690	-126.309398	-0.922414	-103.086443
9.600000	-0.819776	34.969135	-12.538376	-127.964365	-12.538376	-127.964365	-0.943514	-104.436581
9.650000	-0.834316	33.160421	-12.443076	-129.627685	-12.443076	-129.627685	-0.965634	-105.792785
9.700000	-0.849630	31.343536	-12.343801	-131.300095	-12.343801	-131.300095	-0.988842	-107.155823
9.750000	-0.865759	29.518225	-12.240566	-132.982391	-12.240566	-132.982391	-1.013214	-108.526492
9.800000	-0.882750	27.684207	-12.133387	-134.675423	-12.133387	-134.675423	-1.038833	-109.905627
9.850000	-0.900650	25.841183	-12.022281	-136.380103	-12.022281	-136.380103	-1.065787	-111.294097
9.900000	-0.919512	23.988826	-11.907268	-138.097403	-11.907268	-138.097403	-1.094176	-112.692810
9.950000	-0.939390	22.126784	-11.788373	-139.828358	-11.788373	-139.828358	-1.124108	-114.102714
10.000000	-0.960344	20.254676	-11.665622	-141.574072	-11.665622	-141.574072	-1.155702	-115.524799
