! freq	dB(S11)	phase(S11)	dB(S12)	phase(S12)	
!     	dB(S21)	phase(S21)	dB(S22)	phase(S22)	
!S-par simulation data
#  GHz  S  DB  R 50
0.000000	-72.177814	0.000000	-0.002138	0.000000	-0.002138	0.000000	-72.177814	0.000000
0.050000	-43.643212	77.985070	-0.013342	-4.872641	-0.013342	-4.872641	-43.645212	77.890327
0.100000	-37.795332	75.890869	-0.021108	-9.678127	-0.021108	-9.678127	-37.797654	75.775513
0.150000	-34.396620	72.340341	-0.028385	-14.476515	-0.028385	-14.476515	-34.392401	72.037145
0.200000	-31.980039	68.404114	-0.035894	-19.267057	-0.035894	-19.267057	-31.975068	67.922766
0.250000	-30.104817	64.249025	-0.043458	-24.050960	-0.043458	-24.050960	-30.100676	63.611008
0.300000	-28.577670	59.951084	-0.050979	-28.830225	-0.050979	-28.830225	-28.574388	59.171611
0.350000	-27.294164	55.563960	-0.058486	-33.606869	-0.058486	-33.606869	-27.291452	54.652059
0.400000	-26.192157	51.114367	-0.066046	-38.381948	-0.066046	-38.381948	-26.189780	50.076320
0.450000	-25.231463	46.619410	-0.073719	-43.156054	-0.073719	-43.156054	-25.229305	45.459993
0.500000	-24.384345	42.090690	-0.081541	-47.929485	-0.081541	-47.929485	-24.382404	40.813697
0.550000	-23.630971	37.535794	-0.089524	-52.702369	-0.089524	-52.702369	-23.629333	36.144280
0.600000	-22.956544	32.959968	-0.097660	-57.474764	-0.097660	-57.474764	-22.955337	31.456346
0.650000	-22.350741	28.366164	-0.105935	-62.246678	-0.105935	-62.246678	-22.350109	26.752347
0.700000	-21.804360	23.757504	-0.114314	-67.018156	-0.114314	-67.018156	-21.804407	22.034895
0.750000	-21.312062	19.135108	-0.122764	-71.789224	-0.122764	-71.789224	-21.312837	17.304898
0.800000	-20.867154	14.501317	-0.131240	-76.559987	-0.131240	-76.559987	-20.868616	12.564578
0.850000	-20.465404	9.857252	-0.139704	-81.330549	-0.139704	-81.330549	-20.467444	7.815223
0.900000	-20.104204	5.203651	-0.148112	-86.101047	-0.148112	-86.101047	-20.106654	3.057946
0.950000	-19.781600	0.541373	-0.156414	-90.871682	-0.156414	-90.871682	-19.784258	-1.705899
1.000000	-19.494061	-4.128117	-0.164576	-95.642669	-0.164576	-95.642669	-19.496747	-6.474615
1.050000	-19.239719	-8.803883	-0.172560	-100.414243	-0.172560	-100.414243	-19.242289	-11.247112
1.100000	-19.019173	-13.485361	-0.180311	-105.186765	-0.180311	-105.186765	-19.021532	-16.022696
1.150000	-18.830393	-18.171340	-0.187801	-109.960540	-0.187801	-109.960540	-18.832522	-20.800630
1.200000	-18.673543	-22.860996	-0.194986	-114.735989	-0.194986	-114.735989	-18.675487	-25.580719
1.250000	-18.547558	-27.553337	-0.201843	-119.513481	-0.201843	-119.513481	-18.549421	-30.362981
1.300000	-18.453685	-32.247545	-0.208326	-124.293574	-0.208326	-124.293574	-18.455621	-35.147923
1.350000	-18.391153	-36.942628	-0.214422	-129.076675	-0.214422	-129.076675	-18.393347	-39.936151
1.400000	-18.362131	-41.637551	-0.220086	-133.863508	-0.220086	-133.863508	-18.364810	-44.728898
1.450000	-18.365518	-46.331187	-0.225324	-138.654414	-0.225324	-138.654414	-18.368916	-49.527164
1.500000	-18.403937	-51.022023	-0.230104	-143.450200	-0.230104	-143.450200	-18.408327	-54.332854
1.550000	-18.478949	-55.708195	-0.234416	-148.251540	-0.234416	-148.251540	-18.484637	-59.148040
1.600000	-18.592364	-60.387285	-0.238260	-153.059126	-0.238260	-153.059126	-18.599699	-63.975237
1.650000	-18.746884	-65.056003	-0.241636	-157.873752	-0.241636	-157.873752	-18.756286	-68.817702
1.700000	-18.944983	-69.710208	-0.244564	-162.696102	-0.244564	-162.696102	-18.956960	-73.679148
1.750000	-19.191189	-74.343676	-0.247054	-167.527157	-0.247054	-167.527157	-19.206393	-78.565059
1.800000	-19.488768	-78.949214	-0.249152	-172.367487	-0.249152	-172.367487	-19.508032	-83.481089
1.850000	-19.844813	-83.514682	-0.250884	-177.218282	-0.250884	-177.218282	-19.869272	-88.437021
1.900000	-20.264452	-88.026712	-0.252316	177.920016	-0.252316	177.920016	-20.295620	-93.442635
1.950000	-20.758189	-92.461141	-0.253503	173.046111	-0.253503	173.046111	-20.798237	-98.516250
2.000000	-21.335320	-96.789916	-0.254529	168.159591	-0.254529	168.159591	-21.387297	-103.678052
2.050000	-22.009434	-100.970930	-0.255476	163.259816	-0.255476	163.259816	-22.077797	-108.958676
2.100000	-22.800737	-104.930988	-0.256442	158.345626	-0.256442	158.345626	-22.892396	-114.412090
2.150000	-23.733870	-108.562581	-0.257534	153.416424	-0.257534	153.416424	-23.859828	-120.118008
2.200000	-24.841600	-111.703241	-0.258859	148.472007	-0.258859	148.472007	-25.020105	-126.199589
2.250000	-26.172583	-114.046552	-0.260540	143.511623	-0.260540	143.511623	-26.436612	-132.897613
2.300000	-27.793775	-114.972106	-0.262713	138.534376	-0.262713	138.534376	-28.209280	-140.729284
2.350000	-29.785451	-113.371773	-0.265482	133.540603	-0.265482	133.540603	-30.495589	-150.733132
2.400000	-32.192292	-106.818340	-0.268964	128.530042	-0.268964	128.530042	-33.544297	-165.678042
2.450000	-34.567436	-89.838041	-0.273325	123.501530	-0.273325	123.501530	-37.240452	164.668326
2.500000	-35.192559	-62.070833	-0.278631	118.455881	-0.278631	118.455881	-38.249032	112.718460
2.550000	-33.206166	-38.725426	-0.284979	113.393057	-0.284979	113.393057	-34.680838	73.304020
2.600000	-30.467490	-27.885897	-0.292491	108.312517	-0.292491	108.312517	-31.043112	54.366934
2.650000	-28.039615	-24.556529	-0.301225	103.214510	-0.301225	103.214510	-28.244398	43.105222
2.700000	-26.016878	-25.002562	-0.311259	98.098794	-0.311259	98.098794	-26.047391	34.937716
2.750000	-24.324975	-27.439622	-0.322618	92.965597	-0.322618	92.965597	-24.258950	28.253836
2.800000	-22.886526	-31.079469	-0.335335	87.814684	-0.335335	87.814684	-22.758834	22.425185
2.850000	-21.644393	-35.513178	-0.349432	82.645742	-0.349432	82.645742	-21.472048	17.146061
2.900000	-20.557396	-40.510406	-0.364894	77.458593	-0.364894	77.458593	-20.349193	12.250729
2.950000	-19.595493	-45.949595	-0.381736	72.252385	-0.381736	72.252385	-19.356018	7.653077
3.000000	-18.736054	-51.747841	-0.399929	67.026572	-0.399929	67.026572	-18.467695	3.295020
3.050000	-17.961592	-57.859093	-0.419470	61.780091	-0.419470	61.780091	-17.665479	-0.856236
3.100000	-17.258147	-64.256446	-0.440372	56.511464	-0.440372	56.511464	-16.934695	-4.820874
3.150000	-16.613989	-70.918630	-0.462641	51.219407	-0.462641	51.219407	-16.263342	-8.615677
3.200000	-16.019223	-77.838589	-0.486347	45.901701	-0.486347	45.901701	-15.641400	-12.248835
3.250000	-15.464957	-85.007534	-0.511572	40.556372	-0.511572	40.556372	-15.060146	-15.730337
3.300000	-14.943183	-92.420425	-0.538458	35.181015	-0.538458	35.181015	-14.511884	-19.068563
3.350000	-14.446412	-100.074531	-0.567232	29.772643	-0.567232	29.772643	-13.989579	-22.271527
3.400000	-13.967572	-107.963675	-0.598191	24.328250	-0.598191	24.328250	-13.486789	-25.350319
3.450000	-13.500140	-116.077030	-0.631706	18.844990	-0.631706	18.844990	-12.997739	-28.319553
3.500000	-13.038356	-124.399040	-0.668225	13.320284	-0.668225	13.320284	-12.517451	-31.197021
3.550000	-12.576327	-132.916279	-0.708416	7.750131	-0.708416	7.750131	-12.040880	-34.001159
3.600000	-12.109370	-141.604450	-0.753008	2.131748	-0.753008	2.131748	-11.564131	-36.756554
3.650000	-11.633965	-150.434209	-0.802843	-3.537127	-0.802843	-3.537127	-11.084299	-39.490508
3.700000	-11.147609	-159.373132	-0.858916	-9.258492	-0.858916	-9.258492	-10.599300	-42.232054
3.750000	-10.649097	-168.385736	-0.922354	-15.033623	-0.922354	-15.033623	-10.108080	-45.011249
3.800000	-10.138269	-177.435011	-0.994471	-20.863234	-0.994471	-20.863234	-9.610394	-47.858475
3.850000	-9.616601	173.516646	-1.076649	-26.746442	-1.076649	-26.746442	-9.107293	-50.802077
3.900000	-9.087184	164.504337	-1.170217	-32.680401	-1.170217	-32.680401	-8.601122	-53.865417
3.950000	-8.553431	155.560178	-1.276682	-38.661470	-1.276682	-38.661470	-8.094489	-57.068639
4.000000	-8.019881	146.711160	-1.397342	-44.683689	-1.397342	-44.683689	-7.590947	-60.424168
4.050000	-7.490236	137.985048	-1.533991	-50.740749	-1.533991	-50.740749	-7.093442	-63.945049
4.100000	-6.969606	129.401020	-1.687720	-56.822847	-1.687720	-56.822847	-6.606117	-67.631355
4.150000	-6.462371	120.976367	-1.859651	-62.919151	-1.859651	-62.919151	-6.132589	-71.479946
4.200000	-5.972459	112.726827	-2.050782	-69.017268	-2.050782	-69.017268	-5.676167	-75.483672
4.250000	-5.503404	104.663930	-2.261650	-75.103483	-2.261650	-75.103483	-5.239858	-79.629310
4.300000	-5.057996	96.797036	-2.492468	-81.163506	-2.492468	-81.163506	-4.826063	-83.900529
4.350000	-4.638285	89.134479	-2.743161	-87.182750	-2.743161	-87.182750	-4.436570	-88.279327
4.400000	-4.245631	81.683100	-3.013308	-93.146799	-3.013308	-93.146799	-4.072569	-92.746451
4.450000	-3.880737	74.448302	-3.302153	-99.041876	-3.302153	-99.041876	-3.734671	-97.282298
4.500000	-3.543711	67.434039	-3.608640	-104.855256	-3.608640	-104.855256	-3.422950	-101.867691
4.550000	-3.234150	60.642786	-3.931457	-110.575612	-3.931457	-110.575612	-3.137015	-106.484513
4.600000	-2.951310	54.076592	-4.269086	-116.192725	-4.269086	-116.192725	-2.876160	-111.116179
4.650000	-2.694116	47.735965	-4.619808	-121.698045	-4.619808	-121.698045	-2.639369	-115.747691
4.700000	-2.460989	41.616700	-4.981857	-127.086592	-4.981857	-127.086592	-2.425140	-120.366275
4.750000	-2.250356	35.715416	-5.353464	-132.354182	-5.353464	-132.354182	-2.231981	-124.961345
4.800000	-2.060559	30.027537	-5.732874	-137.498305	-5.732874	-137.498305	-2.058321	-129.524300
4.850000	-1.889915	24.547457	-6.118392	-142.517964	-6.118392	-142.517964	-1.902559	-134.048384
4.900000	-1.736764	19.268722	-6.508408	-147.413478	-6.508408	-147.413478	-1.763115	-138.528503
4.950000	-1.599501	14.184222	-6.901419	-152.186283	-6.901419	-152.186283	-1.638461	-142.961023
5.000000	-1.476602	9.286366	-7.296041	-156.838724	-7.296041	-156.838724	-1.527145	-147.343551
5.050000	-1.366829	4.570342	-7.690679	-161.371806	-7.690679	-161.371806	-1.427981	-151.673788
5.100000	-1.268640	0.024681	-8.084513	-165.791346	-8.084513	-165.791346	-1.339500	-155.952163
5.150000	-1.180827	-4.358721	-8.476552	-170.101352	-8.476552	-170.101352	-1.260549	-160.178853
5.200000	-1.102296	-8.587899	-8.865924	-174.306079	-8.865924	-174.306079	-1.190082	-164.354531
5.250000	-1.032055	-12.670732	-9.251866	-178.409918	-9.251866	-178.409918	-1.127154	-168.480244
5.300000	-0.969215	-16.614884	-9.633719	177.582692	-9.633719	177.582692	-1.070913	-172.557294
5.350000	-0.912978	-20.427754	-10.010913	173.667331	-10.010913	173.667331	-1.020600	-176.587159
5.400000	-0.862634	-24.116448	-10.382964	169.839656	-10.382964	169.839656	-0.975534	179.428590
5.450000	-0.817548	-27.687750	-10.749460	166.095440	-10.749460	166.095440	-0.935111	175.488338
5.500000	-0.777159	-31.148119	-11.110053	162.430600	-11.110053	162.430600	-0.898795	171.590476
5.550000	-0.740966	-34.503681	-11.464456	158.841221	-11.464456	158.841221	-0.866107	167.733435
5.600000	-0.708527	-37.760232	-11.812427	155.323567	-11.812427	155.323567	-0.836628	163.915709
5.650000	-0.679481	-40.922283	-12.153554	151.874788	-12.153554	151.874788	-0.810010	160.136274
5.700000	-0.653471	-43.995159	-12.487692	148.491416	-12.487692	148.491416	-0.785914	156.393763
5.750000	-0.630156	-46.984712	-12.814934	145.169546	-12.814934	145.169546	-0.764020	152.686549
5.800000	-0.609264	-49.895490	-13.135182	141.906200	-13.135182	141.906200	-0.744073	149.013524
5.850000	-0.590722	-52.725706	-13.446792	138.703152	-13.446792	138.703152	-0.725972	145.376484
5.900000	-0.573950	-55.492565	-13.753065	135.547854	-13.753065	135.547854	-0.709238	141.768539
5.950000	-0.558966	-58.192626	-14.052148	132.443244	-14.052148	132.443244	-0.693855	138.192131
6.000000	-0.545600	-60.829449	-14.344009	129.387004	-14.344009	129.387004	-0.679666	134.646568
6.050000	-0.533647	-63.408797	-14.629320	126.375072	-14.629320	126.375072	-0.666496	131.129969
6.100000	-0.523101	-65.928286	-14.906488	123.409722	-14.906488	123.409722	-0.654312	127.644731
6.150000	-0.513769	-68.394065	-15.176399	120.486580	-15.176399	120.486580	-0.642954	124.188797
6.200000	-0.505544	-70.808918	-15.439050	117.603867	-15.439050	117.603867	-0.632330	120.761822
6.250000	-0.498333	-73.175467	-15.694440	114.759914	-15.694440	114.759914	-0.622357	117.363527
6.300000	-0.492069	-75.495243	-15.942262	111.953933	-15.942262	111.953933	-0.612975	113.994311
6.350000	-0.486656	-77.771622	-16.182843	109.183623	-16.182843	109.183623	-0.604108	110.653391
6.400000	-0.482027	-80.006800	-16.416182	106.447617	-16.416182	106.447617	-0.595702	107.340656
6.450000	-0.478122	-82.202855	-16.642278	103.744629	-16.642278	103.744629	-0.587709	104.056037
6.500000	-0.474921	-84.359805	-16.860431	101.075140	-16.860431	101.075140	-0.580109	100.801021
6.550000	-0.472313	-86.483145	-17.071911	98.434904	-17.071911	98.434904	-0.572831	97.572856
6.600000	-0.470282	-88.572996	-17.276134	95.824255	-17.276134	95.824255	-0.565861	94.372778
6.650000	-0.468791	-90.631039	-17.473084	93.242186	-17.473084	93.242186	-0.559176	91.200817
6.700000	-0.467804	-92.658869	-17.662743	90.687745	-17.662743	90.687745	-0.552753	88.057017
6.750000	-0.467290	-94.658009	-17.845085	88.160029	-17.845085	88.160029	-0.546575	84.941424
6.800000	-0.467221	-96.629911	-18.020082	85.658182	-18.020082	85.658182	-0.540629	81.854090
6.850000	-0.467572	-98.575963	-18.187697	83.181388	-18.187697	83.181388	-0.534903	78.795062
6.900000	-0.468320	-100.497494	-18.347890	80.728868	-18.347890	80.728868	-0.529387	75.764381
6.950000	-0.469444	-102.395776	-18.500611	78.299877	-18.500611	78.299877	-0.524076	72.762078
7.000000	-0.470928	-104.272031	-18.645805	75.893697	-18.645805	75.893697	-0.518966	69.788170
7.050000	-0.472754	-106.127436	-18.783409	73.509635	-18.783409	73.509635	-0.514052	66.842657
7.100000	-0.474908	-107.963125	-18.913354	71.147017	-18.913354	71.147017	-0.509334	63.925521
7.150000	-0.477378	-109.780190	-19.035560	68.805189	-19.035560	68.805189	-0.504813	61.036720
7.200000	-0.480152	-111.579692	-19.149941	66.483504	-19.149941	66.483504	-0.500490	58.176190
7.250000	-0.483221	-113.362658	-19.256402	64.181330	-19.256402	64.181330	-0.496368	55.343838
7.300000	-0.486578	-115.130085	-19.354839	61.898034	-19.354839	61.898034	-0.492449	52.539545
7.350000	-0.490215	-116.882946	-19.445136	59.632988	-19.445136	59.632988	-0.488740	49.763162
7.400000	-0.494126	-118.622191	-19.527171	57.385556	-19.527171	57.385556	-0.485245	47.014507
7.450000	-0.498308	-120.348752	-19.600810	55.155098	-19.600810	55.155098	-0.481971	44.293365
7.500000	-0.502757	-122.063543	-19.665908	52.940959	-19.665908	52.940959	-0.478925	41.599489
7.550000	-0.507484	-123.767035	-19.721911	50.743115	-19.721911	50.743115	-0.476124	38.933750
7.600000	-0.512476	-125.460628	-19.769043	48.560163	-19.769043	48.560163	-0.473569	36.294638
7.650000	-0.517734	-127.145207	-19.807120	46.391378	-19.807120	46.391378	-0.471269	33.681785
7.700000	-0.523261	-128.821651	-19.835946	44.236004	-19.835946	44.236004	-0.469233	31.094786
7.750000	-0.529061	-130.490841	-19.855312	42.093248	-19.855312	42.093248	-0.467473	28.533193
7.800000	-0.535138	-132.153659	-19.864994	39.962272	-19.864994	39.962272	-0.466002	25.996515
7.850000	-0.541500	-133.810998	-19.864753	37.842189	-19.864753	37.842189	-0.464832	23.484212
7.900000	-0.548154	-135.463760	-19.854334	35.732055	-19.854334	35.732055	-0.463978	20.995700
7.950000	-0.555112	-137.112863	-19.833466	33.630864	-19.833466	33.630864	-0.463457	18.530342
8.000000	-0.562387	-138.759247	-19.801860	31.537539	-19.801860	31.537539	-0.463285	16.087445
8.050000	-0.569992	-140.403877	-19.759208	29.450923	-19.759208	29.450923	-0.463483	13.666260
8.100000	-0.577947	-142.047749	-19.705183	27.369772	-19.705183	27.369772	-0.464072	11.265975
8.150000	-0.586271	-143.691901	-19.639435	25.292747	-19.639435	25.292747	-0.465078	8.885706
8.200000	-0.594988	-145.337413	-19.561591	23.218397	-19.561591	23.218397	-0.466528	6.524500
8.250000	-0.604129	-146.985421	-19.471252	21.145154	-19.471252	21.145154	-0.468454	4.181315
8.300000	-0.613724	-148.637126	-19.367993	19.071314	-19.367993	19.071314	-0.470892	1.855020
8.350000	-0.623814	-150.293804	-19.251360	16.995022	-19.251360	16.995022	-0.473884	-0.455618
8.400000	-0.634442	-151.956820	-19.120862	14.914258	-19.120862	14.914258	-0.477478	-2.751950
8.450000	-0.645663	-153.627641	-18.975975	12.826810	-18.975975	12.826810	-0.481730	-5.035459
8.500000	-0.657538	-155.307859	-18.816135	10.730252	-18.816135	10.730252	-0.486704	-7.307778
8.550000	-0.670141	-156.999206	-18.640731	8.621913	-18.640731	8.621913	-0.492479	-9.570715
8.600000	-0.683559	-158.703584	-18.449104	6.498840	-18.449104	6.498840	-0.499143	-11.826279
8.650000	-0.697896	-160.423094	-18.240539	4.357759	-18.240539	4.357759	-0.506805	-14.076713
8.700000	-0.713275	-162.160072	-18.014257	2.195017	-18.014257	2.195017	-0.515595	-16.324536
8.750000	-0.729846	-163.917131	-17.769409	0.006516	-17.769409	0.006516	-0.525666	-18.572595
8.800000	-0.747859	-165.698383	-17.503780	-2.213936	-17.503780	-2.213936	-0.537281	-20.824448
8.850000	-0.767490	-167.506367	-17.217394	-4.470567	-17.217394	-4.470567	-0.550621	-23.083857
8.900000	-0.789020	-169.344997	-16.909077	-6.769509	-16.909077	-6.769509	-0.565980	-25.355175
8.950000	-0.812797	-171.218794	-16.577527	-9.117851	-16.577527	-9.117851	-0.583720	-27.643458
9.000000	-0.839261	-173.133022	-16.221294	-11.523856	-16.221294	-11.523856	-0.604300	-29.954629
9.050000	-0.868968	-175.093857	-15.838756	-13.997254	-15.838756	-13.997254	-0.628303	-32.295677
9.100000	-0.902633	-177.108603	-15.428099	-16.549609	-15.428099	-16.549609	-0.656476	-34.674918
9.150000	-0.941182	-179.185963	-14.987287	-19.194817	-14.987287	-19.194817	-0.689792	-37.102328
9.200000	-0.985413	178.668514	-14.517632	-21.942301	-14.517632	-21.942301	-0.729083	-39.585701
9.250000	-1.037263	176.437722	-14.012885	-24.819347	-14.012885	-24.819347	-0.776390	-42.143162
9.300000	-1.099258	174.102906	-13.467945	-27.856959	-13.467945	-27.856959	-0.834376	-44.796070
9.350000	-1.174045	171.648940	-12.882278	-31.081745	-12.882278	-31.081745	-0.905834	-47.563375
9.400000	-1.265810	169.053099	-12.252552	-34.534381	-12.252552	-34.534381	-0.995190	-50.472628
9.450000	-1.380406	166.288252	-11.575582	-38.266111	-11.575582	-38.266111	-1.108655	-53.557387
9.500000	-1.527818	163.312766	-10.843755	-42.359549	-10.843755	-42.359549	-1.256866	-56.869231
9.550000	-1.719797	160.097050	-10.059161	-46.888985	-10.059161	-46.888985	-1.452427	-60.450434
9.600000	-1.975703	156.601312	-9.220707	-51.969273	-9.220707	-51.969273	-1.716255	-64.360053
9.650000	-2.331655	152.776390	-8.322987	-57.796448	-8.322987	-57.796448	-2.087801	-68.682967
9.700000	-2.831312	148.649270	-7.383814	-64.522878	-7.383814	-64.522878	-2.616070	-73.436157
9.750000	-3.562952	144.338405	-6.417603	-72.450151	-6.417603	-72.450151	-3.402959	-78.593627
9.800000	-4.653547	140.344261	-5.470485	-81.842058	-5.470485	-81.842058	-4.607596	-83.794744
9.850000	-6.278918	138.109595	-4.617808	-92.905458	-4.617808	-92.905458	-6.495826	-87.765819
9.900000	-8.529188	141.617143	-3.971232	-105.641802	-3.971232	-105.641802	-9.432878	-86.056860
9.950000	-10.548924	157.626587	-3.646979	-119.550488	-3.646979	-119.550488	-12.837273	-65.760642
10.000000	-10.005980	-179.824830	-3.711874	-133.685988	-3.711874	-133.685988	-11.986141	-30.248601
