! freq	dB(S11)	phase(S11)	dB(S12)	phase(S12)	
!     	dB(S21)	phase(S21)	dB(S22)	phase(S22)	
!S-par simulation data
#  GHz  S  DB  R 50
0.000000	-73.498946	0.000000	-0.001836	0.000000	-0.001836	0.000000	-73.498946	0.000000
0.050000	-50.083023	-88.246787	-0.007738	-5.761068	-0.007738	-5.761068	-50.190037	-89.551286
0.100000	-44.556479	-94.715385	-0.019049	-11.469852	-0.019049	-11.469852	-44.609360	-96.834179
0.150000	-41.431682	-101.144463	-0.029304	-17.142666	-0.029304	-17.142666	-41.476019	-104.035667
0.200000	-39.271596	-107.463530	-0.037696	-22.802288	-0.037696	-22.802288	-39.319860	-111.261774
0.250000	-37.667436	-113.572060	-0.044966	-28.458574	-0.044966	-28.458574	-37.718582	-118.389175
0.300000	-36.444701	-119.478872	-0.051710	-34.114509	-0.051710	-34.114509	-36.495325	-125.408496
0.350000	-35.517550	-125.203968	-0.058220	-39.770882	-0.058220	-39.770882	-35.564459	-132.347925
0.400000	-34.831757	-130.767808	-0.064614	-45.427955	-0.064614	-45.427955	-34.872415	-139.248909
0.450000	-34.355255	-136.178036	-0.070911	-51.085989	-0.070911	-51.085989	-34.387478	-146.153539
0.500000	-34.071004	-141.429430	-0.077096	-56.745372	-0.077096	-56.745372	-34.092562	-153.106838
0.550000	-33.972082	-146.503954	-0.083143	-62.406603	-0.083143	-62.406603	-33.980266	-160.161558
0.600000	-34.060375	-151.366890	-0.089038	-68.070258	-0.089038	-68.070258	-34.051426	-167.384921
0.650000	-34.350350	-155.952544	-0.094777	-73.737004	-0.094777	-73.737004	-34.318447	-174.876481
0.700000	-34.864546	-160.153134	-0.100377	-79.407461	-0.100377	-79.407461	-34.800157	177.215729
0.750000	-35.637086	-163.790476	-0.105872	-85.082121	-0.105872	-85.082121	-35.523786	168.664564
0.800000	-36.728289	-166.525678	-0.111307	-90.761456	-0.111307	-90.761456	-36.535339	159.066485
0.850000	-38.235755	-167.644545	-0.116734	-96.445908	-0.116734	-96.445908	-37.899657	147.628689
0.900000	-40.297046	-165.525316	-0.122210	-102.135743	-0.122210	-102.135743	-39.674425	132.746444
0.950000	-42.999245	-155.950589	-0.127790	-107.831178	-0.127790	-107.831178	-41.766069	111.085166
1.000000	-45.443247	-130.408855	-0.133527	-113.532342	-0.133527	-113.532342	-43.318571	78.407823
1.050000	-44.463262	-94.893412	-0.139464	-119.239299	-0.139464	-119.239299	-42.590787	40.118918
1.100000	-40.978462	-74.892028	-0.145637	-124.952065	-0.145637	-124.952065	-40.010214	10.717096
1.150000	-37.755054	-68.331975	-0.152067	-130.670624	-0.152067	-130.670624	-37.269803	-8.468825
1.200000	-35.168022	-67.475047	-0.158765	-136.394953	-0.158765	-136.394953	-34.905349	-22.053211
1.250000	-33.075733	-69.179909	-0.165731	-142.125039	-0.165731	-142.125039	-32.925597	-32.784609
1.300000	-31.345938	-72.222090	-0.172956	-147.861028	-0.172956	-147.861028	-31.258696	-41.935669
1.350000	-29.891301	-76.013785	-0.180412	-153.602864	-0.180412	-153.602864	-29.842405	-50.175118
1.400000	-28.652713	-80.277986	-0.188069	-159.350672	-0.188069	-159.350672	-28.628767	-57.832469
1.450000	-27.590211	-84.858230	-0.195892	-165.104644	-0.195892	-165.104644	-27.583377	-65.099011
1.500000	-26.675934	-89.659937	-0.203845	-170.865031	-0.203845	-170.865031	-26.681365	-72.092470
1.550000	-25.889966	-94.622714	-0.211890	-176.632140	-0.211890	-176.632140	-25.904530	-78.888932
1.600000	-25.217824	-99.706222	-0.219994	177.593686	-0.219994	177.593686	-25.239429	-85.539627
1.650000	-24.648901	-104.882501	-0.228120	171.812085	-0.228120	171.812085	-24.676104	-92.080269
1.700000	-24.174139	-110.130494	-0.236236	166.022850	-0.236236	166.022850	-24.205929	-98.537707
1.750000	-23.791024	-115.438145	-0.244296	160.225275	-0.244296	160.225275	-23.826656	-104.927898
1.800000	-23.494305	-120.792840	-0.252244	154.419188	-0.252244	154.419188	-23.533229	-111.266969
1.850000	-23.281913	-126.186327	-0.260004	148.604169	-0.260004	148.604169	-23.323698	-117.565728
1.900000	-23.153936	-131.612531	-0.267473	142.779570	-0.267473	142.779570	-23.198220	-123.832295
1.950000	-23.111326	-137.066570	-0.274531	136.944553	-0.274531	136.944553	-23.157781	-130.073165
2.000000	-23.154635	-142.544378	-0.281071	131.098203	-0.281071	131.098203	-23.202939	-136.293457
2.050000	-23.289946	-148.044037	-0.286986	125.238758	-0.286986	125.238758	-23.339736	-142.495728
2.100000	-23.522898	-153.563961	-0.292227	119.364499	-0.292227	119.364499	-23.573744	-148.681353
2.150000	-23.862584	-159.103938	-0.296804	113.473459	-0.296804	113.473459	-23.913932	-154.849220
2.200000	-24.322088	-164.665333	-0.300787	107.563617	-0.300787	107.563617	-24.373181	-160.994849
2.250000	-24.920098	-170.251889	-0.304304	101.633027	-0.304304	101.633027	-24.969842	-167.108325
2.300000	-25.684232	-175.871750	-0.307523	95.679763	-0.307523	95.679763	-25.730936	-173.169504
2.350000	-26.647309	178.462944	-0.310641	89.703670	-0.310641	89.703670	-26.688345	-179.147278
2.400000	-27.870385	172.725726	-0.313840	83.703384	-0.313840	83.703384	-27.901155	175.021332
2.450000	-29.455724	166.857600	-0.317314	77.677406	-0.317314	77.677406	-29.467219	169.474215
2.500000	-31.582651	160.728570	-0.321238	71.625508	-0.321238	71.625508	-31.554799	164.509863
2.550000	-34.643845	153.943879	-0.325777	65.546900	-0.325777	65.546900	-34.518724	161.003362
2.600000	-39.764905	144.748028	-0.331059	59.441447	-0.331059	59.441447	-39.271147	162.528389
2.650000	-52.853122	94.019012	-0.337195	53.308768	-0.337195	53.308768	-47.795316	-157.657089
2.700000	-42.275974	-25.793826	-0.344271	47.148469	-0.344271	47.148469	-41.964403	-77.443252
2.750000	-35.459717	-37.383818	-0.352343	40.960097	-0.352343	40.960097	-35.609846	-70.032087
2.800000	-31.612323	-44.370687	-0.361446	34.743085	-0.361446	34.743085	-31.821046	-72.820658
2.850000	-28.929509	-50.296959	-0.371596	28.496453	-0.371596	28.496453	-29.159036	-78.094453
2.900000	-26.878131	-55.760293	-0.382774	22.219385	-0.382774	22.219385	-27.122964	-84.420108
2.950000	-25.226995	-60.933869	-0.394946	15.910711	-0.394946	15.910711	-25.487543	-91.364536
3.000000	-23.854091	-65.878838	-0.408070	9.568835	-0.408070	9.568835	-24.132280	-98.762480
3.050000	-22.686295	-70.615476	-0.422104	3.191760	-0.422104	3.191760	-22.984477	-106.546819
3.100000	-21.675386	-75.145927	-0.437010	-3.222972	-0.437010	-3.222972	-21.995955	-114.694521
3.150000	-20.786973	-79.462508	-0.452778	-9.678567	-0.452778	-9.678567	-21.132164	-123.206853
3.200000	-19.994406	-83.555075	-0.469428	-16.178611	-0.469428	-16.178611	-20.366019	-132.094911
3.250000	-19.275603	-87.415121	-0.487033	-22.727001	-0.487033	-22.727001	-19.674683	-141.372472
3.300000	-18.611273	-91.036830	-0.505743	-29.328451	-0.505743	-29.328451	-19.037808	-151.054515
3.350000	-17.983820	-94.423248	-0.525796	-35.987897	-0.525796	-35.987897	-18.436354	-161.147456
3.400000	-17.376129	-97.583889	-0.547594	-42.712297	-0.547594	-42.712297	-17.851392	-171.655103
3.450000	-16.772581	-100.550360	-0.571646	-49.507377	-0.571646	-49.507377	-17.265193	177.448209
3.500000	-16.158876	-103.369820	-0.598662	-56.379919	-0.598662	-56.379919	-16.661360	166.205490
3.550000	-15.522831	-106.108308	-0.629570	-63.337064	-0.629570	-63.337064	-16.025951	154.682920
3.600000	-14.855015	-108.849204	-0.665571	-70.386396	-0.665571	-70.386396	-15.348460	142.967396
3.650000	-14.150914	-111.686457	-0.708093	-77.534245	-0.708093	-77.534245	-14.624471	131.160671
3.700000	-13.409994	-114.715674	-0.758882	-84.786860	-0.758882	-84.786860	-13.854587	119.364563
3.750000	-12.635936	-118.025478	-0.820004	-92.149467	-0.820004	-92.149467	-13.044493	107.671425
3.800000	-11.835262	-121.692569	-0.893951	-99.626587	-0.893951	-99.626587	-12.203091	96.157269
3.850000	-11.018392	-125.768047	-0.983345	-107.218918	-0.983345	-107.218918	-11.343368	84.873082
3.900000	-10.196283	-130.283017	-1.091148	-114.925182	-1.091148	-114.925182	-10.478410	73.849175
3.950000	-9.380103	-135.247455	-1.220510	-122.740701	-1.220510	-122.740701	-9.621008	63.098420
4.000000	-8.580184	-140.655336	-1.374828	-130.657373	-1.374828	-130.657373	-8.782562	52.623326
4.050000	-7.806438	-146.480430	-1.557204	-138.661554	-1.557204	-138.661554	-7.973646	42.416854
4.100000	-7.067040	-152.686555	-1.770589	-146.735540	-1.770589	-146.735540	-7.202710	32.471069
4.150000	-6.368524	-159.229584	-2.017565	-154.857435	-2.017565	-154.857435	-6.476326	22.779606
4.200000	-5.715834	-166.060825	-2.300280	-163.001551	-2.300280	-163.001551	-5.799319	13.340299
4.250000	-5.112400	-173.126029	-2.619945	-171.139043	-2.619945	-171.139043	-5.174921	4.152746
4.300000	-4.560001	179.629443	-2.976949	-179.239767	-2.976949	-179.239767	-4.604663	-4.780286
4.350000	-4.058993	172.258448	-3.370887	172.726511	-3.370887	172.726511	-4.088637	-13.453282
4.400000	-3.608967	164.810575	-3.800700	164.790846	-3.800700	164.790846	-3.626183	-21.855250
4.450000	-3.207196	157.333493	-4.263957	156.976435	-4.263957	156.976435	-3.214282	-29.988366
4.500000	-2.851268	149.866932	-4.758285	149.307417	-4.758285	149.307417	-2.850287	-37.844681
4.550000	-2.537876	142.445992	-5.280661	141.802531	-5.280661	141.802531	-2.530657	-45.422069
4.600000	-2.263498	135.100467	-5.827724	134.477054	-5.827724	134.477054	-2.251662	-52.719782
4.650000	-2.024425	127.854915	-6.395894	127.342086	-6.395894	127.342086	-2.009402	-59.739982
4.700000	-1.816576	120.726935	-6.981914	120.401841	-6.981914	120.401841	-1.799604	-66.491445
4.750000	-1.636300	113.730321	-7.582595	113.658829	-7.582595	113.658829	-1.618459	-72.982482
4.800000	-1.480184	106.875001	-8.194963	107.112701	-8.194963	107.112701	-1.462410	-79.223171
4.850000	-1.345100	100.167696	-8.816302	100.760837	-8.816302	100.760837	-1.328201	-85.224882
4.900000	-1.228232	93.612538	-9.444172	94.598881	-9.444172	94.598881	-1.212900	-90.999827
4.950000	-1.127078	87.211614	-10.076415	88.621223	-10.076415	88.621223	-1.113905	-96.560655
5.000000	-1.039442	80.965423	-10.711138	82.821400	-10.711138	82.821400	-1.028922	-101.920130
5.050000	-0.963578	74.876025	-11.345847	77.195381	-11.345847	77.195381	-0.956132	-107.087663
5.100000	-0.897618	68.938967	-11.979948	71.732649	-11.979948	71.732649	-0.893577	-112.079153
5.150000	-0.840149	63.151954	-12.612251	66.425847	-12.612251	66.425847	-0.839776	-116.906330
5.200000	-0.789966	57.512224	-13.241740	61.267674	-13.241740	61.267674	-0.793457	-121.580340
5.250000	-0.746041	52.016680	-13.867557	56.250983	-13.867557	56.250983	-0.753533	-126.111686
5.300000	-0.707497	46.661993	-14.488975	51.368841	-14.488975	51.368841	-0.719075	-130.510210
5.350000	-0.673592	41.444676	-15.105384	46.614574	-15.105384	46.614574	-0.689290	-134.785090
5.400000	-0.643696	36.361141	-15.716278	41.981787	-15.716278	41.981787	-0.663501	-138.944853
5.450000	-0.617272	31.407739	-16.321237	37.464380	-16.321237	37.464380	-0.641133	-142.997396
5.500000	-0.593867	26.580792	-16.919920	33.056550	-16.919920	33.056550	-0.621695	-146.950020
5.550000	-0.573096	21.876616	-17.512050	28.752789	-17.512050	28.752789	-0.604768	-150.809462
5.600000	-0.554630	17.291538	-18.097411	24.547883	-18.097411	24.547883	-0.589996	-154.581931
5.650000	-0.538211	12.823123	-18.675349	20.437871	-18.675349	20.437871	-0.577089	-158.272322
5.700000	-0.523592	8.467640	-19.245777	16.417952	-19.245777	16.417952	-0.565781	-161.886062
5.750000	-0.510551	4.220270	-19.809116	12.482744	-19.809116	12.482744	-0.555830	-165.428848
5.800000	-0.498915	0.077503	-20.365320	8.628146	-20.365320	8.628146	-0.547048	-168.905111
5.850000	-0.488535	-3.964110	-20.914374	4.850313	-20.914374	4.850313	-0.539271	-172.318924
5.900000	-0.479283	-7.907954	-21.456287	1.145643	-21.456287	1.145643	-0.532360	-175.674040
5.950000	-0.471047	-11.757348	-21.991094	-2.489220	-21.991094	-2.489220	-0.526195	-178.973909
6.000000	-0.463732	-15.515534	-22.518847	-6.057405	-22.518847	-6.057405	-0.520672	177.778291
6.050000	-0.457284	-19.182035	-23.038023	-9.559194	-23.038023	-9.559194	-0.515721	174.581616
6.100000	-0.451556	-22.768244	-23.552318	-13.003232	-23.552318	-13.003232	-0.511218	171.428837
6.150000	-0.446527	-26.272444	-24.059782	-16.388574	-24.059782	-16.388574	-0.507124	168.320090
6.200000	-0.442140	-29.697564	-24.560519	-19.717484	-24.560519	-19.717484	-0.503381	165.253080
6.250000	-0.438343	-33.046453	-25.054638	-22.992021	-25.054638	-22.992021	-0.499938	162.225698
6.300000	-0.435114	-36.318807	-25.540812	-26.211847	-25.540812	-26.211847	-0.496760	159.237551
6.350000	-0.432387	-39.520609	-26.020681	-29.380973	-26.020681	-29.380973	-0.493796	156.285143
6.400000	-0.430126	-42.654444	-26.494356	-32.500865	-26.494356	-32.500865	-0.491013	153.366841
6.450000	-0.428300	-45.722816	-26.961951	-35.572812	-26.961951	-35.572812	-0.488383	150.481136
6.500000	-0.426879	-48.728143	-27.423570	-38.597934	-27.423570	-38.597934	-0.485879	147.626641
6.550000	-0.425838	-51.672767	-27.879317	-41.577190	-27.879317	-41.577190	-0.483481	144.802074
6.600000	-0.425153	-54.558946	-28.329287	-44.511381	-28.329287	-44.511381	-0.481168	142.006254
6.650000	-0.424803	-57.388863	-28.773564	-47.401164	-28.773564	-47.401164	-0.478923	139.238094
6.700000	-0.424766	-60.164624	-29.212226	-50.247054	-29.212226	-50.247054	-0.476733	136.496592
6.750000	-0.425027	-62.888260	-29.645334	-53.049433	-29.645334	-53.049433	-0.474584	133.780823
6.800000	-0.425567	-65.561728	-30.072940	-55.808561	-30.072940	-55.808561	-0.472465	131.089938
6.850000	-0.426372	-68.186918	-30.495079	-58.524584	-30.495079	-58.524584	-0.470366	128.423154
6.900000	-0.427427	-70.765649	-30.911769	-61.197541	-30.911769	-61.197541	-0.468280	125.779750
6.950000	-0.428721	-73.299673	-31.323013	-63.827377	-31.323013	-63.827377	-0.466198	123.159066
7.000000	-0.430239	-75.790679	-31.728792	-66.413948	-31.728792	-66.413948	-0.464115	120.560491
7.050000	-0.431972	-78.240293	-32.129069	-68.957040	-32.129069	-68.957040	-0.462025	117.983466
7.100000	-0.433910	-80.650084	-32.523786	-71.456373	-32.523786	-71.456373	-0.459925	115.427479
7.150000	-0.436041	-83.021558	-32.912861	-73.911616	-32.912861	-73.911616	-0.457812	112.892057
7.200000	-0.438358	-85.356169	-33.296190	-76.322399	-33.296190	-76.322399	-0.455682	110.376769
7.250000	-0.440852	-87.655316	-33.673646	-78.688328	-33.673646	-78.688328	-0.453534	107.881217
7.300000	-0.443515	-89.920348	-34.045074	-81.008998	-34.045074	-81.008998	-0.451367	105.405039
7.350000	-0.446340	-92.152562	-34.410297	-83.284006	-34.410297	-83.284006	-0.449180	102.947902
7.400000	-0.449319	-94.353209	-34.769111	-85.512971	-34.769111	-85.512971	-0.446972	100.509502
7.450000	-0.452447	-96.523494	-35.121287	-87.695545	-35.121287	-87.695545	-0.444745	98.089559
7.500000	-0.455717	-98.664577	-35.466568	-89.831435	-35.466568	-89.831435	-0.442499	95.687819
7.550000	-0.459129	-100.776409	-35.803795	-91.918370	-35.803795	-91.918370	-0.440235	93.304819
7.600000	-0.462671	-102.861331	-36.133567	-93.958260	-36.133567	-93.958260	-0.437955	90.939556
7.650000	-0.466339	-104.920378	-36.455553	-95.951092	-36.455553	-95.951092	-0.435662	88.591837
7.700000	-0.470126	-106.954550	-36.769401	-97.896981	-36.769401	-97.896981	-0.433358	86.261485
7.750000	-0.474030	-108.964809	-37.074737	-99.796187	-37.074737	-99.796187	-0.431046	83.948336
7.800000	-0.478044	-110.952086	-37.371168	-101.649133	-37.371168	-101.649133	-0.428729	81.652241
7.850000	-0.482166	-112.917278	-37.658286	-103.456418	-37.658286	-103.456418	-0.426410	79.373061
7.900000	-0.486390	-114.861252	-37.935670	-105.218835	-37.935670	-105.218835	-0.424094	77.110667
7.950000	-0.490713	-116.784846	-38.202887	-106.937378	-38.202887	-106.937378	-0.421783	74.864942
8.000000	-0.495131	-118.688872	-38.459501	-108.613258	-38.459501	-108.613258	-0.419482	72.635774
8.050000	-0.499639	-120.574111	-38.705072	-110.247903	-38.705072	-110.247903	-0.417194	70.423060
8.100000	-0.504236	-122.441323	-38.939160	-111.842968	-38.939160	-111.842968	-0.414925	68.226702
8.150000	-0.508916	-124.291241	-39.161334	-113.400328	-39.161334	-113.400328	-0.412679	66.046608
8.200000	-0.513676	-126.124577	-39.371173	-114.922080	-39.371173	-114.922080	-0.410459	63.882689
8.250000	-0.518513	-127.942019	-39.568271	-116.410526	-39.568271	-116.410526	-0.408270	61.734860
8.300000	-0.523424	-129.744236	-39.752241	-117.868167	-39.752241	-117.868167	-0.406117	59.603038
8.350000	-0.528404	-131.531878	-39.922719	-119.297680	-39.922719	-119.297680	-0.404004	57.487143
8.400000	-0.533451	-133.305573	-40.079370	-120.701899	-40.079370	-120.701899	-0.401936	55.387095
8.450000	-0.538561	-135.065934	-40.221889	-122.083786	-40.221889	-122.083786	-0.399918	53.302816
8.500000	-0.543731	-136.813558	-40.350002	-123.446406	-40.350002	-123.446406	-0.397953	51.234224
8.550000	-0.548957	-138.549025	-40.463471	-124.792890	-40.463471	-124.792890	-0.396045	49.181241
8.600000	-0.554236	-140.272900	-40.562094	-126.126405	-40.562094	-126.126405	-0.394200	47.143784
8.650000	-0.559563	-141.985736	-40.645703	-127.450123	-40.645703	-127.450123	-0.392421	45.121770
8.700000	-0.564936	-143.688073	-40.714165	-128.767178	-40.714165	-128.767178	-0.390712	43.115112
8.750000	-0.570351	-145.380438	-40.767382	-130.080643	-40.767382	-130.080643	-0.389078	41.123721
8.800000	-0.575805	-147.062962	-40.804613	-131.393601	-40.804613	-131.393601	-0.387524	39.148160
8.850000	-0.581294	-148.736587	-40.826492	-132.709039	-40.826492	-132.709039	-0.386053	37.187666
8.900000	-0.586812	-150.401809	-40.832996	-134.029637	-40.832996	-134.029637	-0.384667	35.242139
8.950000	-0.592357	-152.059122	-40.824120	-135.357905	-40.824120	-135.357905	-0.383370	33.311470
9.000000	-0.597925	-153.709011	-40.799868	-136.696165	-40.799868	-136.696165	-0.382165	31.395547
9.050000	-0.603511	-155.351956	-40.760256	-138.046547	-40.760256	-138.046547	-0.381056	29.494250
9.100000	-0.609113	-156.988436	-40.705296	-139.410983	-40.705296	-139.410983	-0.380045	27.607454
9.150000	-0.614726	-158.618927	-40.635000	-140.791206	-40.635000	-140.791206	-0.379135	25.735027
9.200000	-0.620347	-160.243904	-40.549367	-142.188755	-40.549367	-142.188755	-0.378331	23.876829
9.250000	-0.625973	-161.863842	-40.448379	-143.604985	-40.448379	-143.604985	-0.377634	22.032711
9.300000	-0.631601	-163.479222	-40.331995	-145.041081	-40.331995	-145.041081	-0.377049	20.202517
9.350000	-0.637229	-165.090528	-40.200144	-146.498072	-40.200144	-146.498072	-0.376578	18.386082
9.400000	-0.642856	-166.698249	-40.052718	-147.976854	-40.052718	-147.976854	-0.376227	16.583231
9.450000	-0.648480	-168.302885	-39.889568	-149.478212	-39.889568	-149.478212	-0.375998	14.793779
9.500000	-0.654102	-169.904946	-39.710492	-151.002847	-39.710492	-151.002847	-0.375896	13.017532
9.550000	-0.659725	-171.504956	-39.515234	-152.551405	-39.515234	-152.551405	-0.375928	11.254284
9.600000	-0.665351	-173.103454	-39.303469	-154.124512	-39.303469	-154.124512	-0.376097	9.503817
9.650000	-0.670987	-174.701000	-39.074799	-155.722808	-39.074799	-155.722808	-0.376413	7.765902
9.700000	-0.676643	-176.298175	-38.828742	-157.346991	-38.828742	-157.346991	-0.376882	6.040298
9.750000	-0.682331	-177.895583	-38.564719	-158.997860	-38.564719	-158.997860	-0.377513	4.326751
9.800000	-0.688069	-179.493859	-38.282042	-160.676374	-38.282042	-160.676374	-0.378319	2.624996
9.850000	-0.693881	178.906332	-37.979899	-162.383709	-37.979899	-162.383709	-0.379310	0.934752
9.900000	-0.699795	177.304294	-37.657336	-164.121336	-37.657336	-164.121336	-0.380503	-0.744272
9.950000	-0.705853	175.699290	-37.313232	-165.891108	-37.313232	-165.891108	-0.381914	-2.412382
10.000000	-0.712102	174.090551	-36.946277	-167.695377	-36.946277	-167.695377	-0.383565	-4.069895
