! freq	dB(S11)	phase(S11)	dB(S12)	phase(S12)	
!     	dB(S21)	phase(S21)	dB(S22)	phase(S22)	
!S-par simulation data
#  GHz  S  DB  R 50
0.000000	-91.519413	0.000000	-0.000231	0.000000	-0.000231	0.000000	-91.519413	0.000000
0.050000	-45.820998	-90.660514	-0.001419	-1.460311	-0.001419	-1.460311	-45.827974	-91.816143
0.100000	-39.802190	-91.771691	-0.004333	-2.913901	-0.004333	-2.913901	-39.810950	-94.080111
0.150000	-36.283422	-92.785773	-0.007850	-4.360126	-0.007850	-4.360126	-36.294854	-96.240827
0.200000	-33.789217	-93.778724	-0.011332	-5.801806	-0.011332	-5.801806	-33.803710	-98.372242
0.250000	-31.857672	-94.765411	-0.014608	-7.241315	-0.014608	-7.241315	-31.875064	-100.487721
0.300000	-30.283454	-95.749675	-0.017721	-8.680058	-0.017721	-8.680058	-30.302777	-102.591492
0.350000	-28.957073	-96.730133	-0.020771	-10.118634	-0.020771	-10.118634	-28.976564	-104.685580
0.400000	-27.813360	-97.701489	-0.023844	-11.557220	-0.023844	-11.557220	-27.830680	-106.770761
0.450000	-26.810226	-98.654726	-0.027012	-12.995835	-0.027012	-12.995835	-26.822832	-108.847297
0.500000	-25.917434	-99.582829	-0.030317	-14.434431	-0.030317	-14.434431	-25.923722	-110.916209
0.550000	-25.112864	-100.482174	-0.033791	-15.872950	-0.033791	-15.872950	-25.112620	-112.978064
0.600000	-24.379811	-101.353998	-0.037465	-17.311324	-0.037465	-17.311324	-24.374372	-115.033139
0.650000	-23.705469	-102.206723	-0.041347	-18.749502	-0.041347	-18.749502	-23.697201	-117.082215
0.700000	-23.080548	-103.048875	-0.045442	-20.187441	-0.045442	-20.187441	-23.072045	-119.125771
0.750000	-22.498216	-103.887141	-0.049762	-21.625097	-0.049762	-21.625097	-22.491855	-121.163876
0.800000	-21.953267	-104.725865	-0.054309	-23.062436	-0.054309	-23.062436	-21.950883	-123.196461
0.850000	-21.441553	-105.566915	-0.059081	-24.499441	-0.059081	-24.499441	-21.444419	-125.222963
0.900000	-20.959632	-106.410635	-0.064075	-25.936093	-0.064075	-25.936093	-20.968591	-127.241867
0.950000	-20.504581	-107.256609	-0.069290	-27.372379	-0.069290	-27.372379	-20.520111	-129.250041
1.000000	-20.073867	-108.104085	-0.074724	-28.808291	-0.074724	-28.808291	-20.095913	-131.241686
1.050000	-19.665277	-108.952232	-0.080373	-30.243827	-0.080373	-30.243827	-19.692439	-133.207267
1.100000	-19.276867	-109.800264	-0.086233	-31.678988	-0.086233	-31.678988	-19.304002	-135.137478
1.150000	-18.906904	-110.647505	-0.092299	-33.113782	-0.092299	-33.113782	-18.921443	-137.050598
1.200000	-18.553922	-111.493330	-0.098571	-34.548207	-0.098571	-34.548207	-18.539891	-139.048374
1.250000	-18.216544	-112.337270	-0.105043	-35.982283	-0.105043	-35.982283	-18.178137	-141.197685
1.300000	-17.893589	-113.178900	-0.111713	-37.416019	-0.111713	-37.416019	-17.848618	-143.385442
1.350000	-17.583962	-114.017923	-0.118574	-38.849437	-0.118574	-38.849437	-17.541807	-145.533016
1.400000	-17.286698	-114.854084	-0.125623	-40.282558	-0.125623	-40.282558	-17.249433	-147.642582
1.450000	-17.000930	-115.687182	-0.132857	-41.715402	-0.132857	-41.715402	-16.968085	-149.729785
1.500000	-16.725871	-116.517059	-0.140271	-43.147995	-0.140271	-43.147995	-16.696420	-151.805362
1.550000	-16.460808	-117.343596	-0.147864	-44.580363	-0.147864	-44.580363	-16.433743	-153.875365
1.600000	-16.205107	-118.166680	-0.155634	-46.012532	-0.155634	-46.012532	-16.179556	-155.943146
1.650000	-15.958164	-118.986269	-0.163578	-47.444533	-0.163578	-47.444533	-15.933413	-158.010647
1.700000	-15.719434	-119.802341	-0.171692	-48.876396	-0.171692	-48.876396	-15.694896	-160.079005
1.750000	-15.488419	-120.614884	-0.179976	-50.308155	-0.179976	-50.308155	-15.463609	-162.148923
1.800000	-15.264660	-121.423908	-0.188428	-51.739841	-0.188428	-51.739841	-15.239175	-164.220857
1.850000	-15.047734	-122.229437	-0.197046	-53.171487	-0.197046	-53.171487	-15.021238	-166.295111
1.900000	-14.837255	-123.031496	-0.205831	-54.603128	-0.205831	-54.603128	-14.809463	-168.371902
1.950000	-14.632858	-123.830142	-0.214783	-56.034798	-0.214783	-56.034798	-14.603531	-170.451370
2.000000	-14.434201	-124.625466	-0.223901	-57.466532	-0.223901	-57.466532	-14.403137	-172.533591
2.050000	-14.240968	-125.417551	-0.233184	-58.898365	-0.233184	-58.898365	-14.207997	-174.618622
2.100000	-14.052866	-126.206492	-0.242634	-60.330329	-0.242634	-60.330329	-14.017846	-176.706492
2.150000	-13.869622	-126.992396	-0.252251	-61.762461	-0.252251	-61.762461	-13.832431	-178.797211
2.200000	-13.691005	-127.775282	-0.262043	-63.194802	-0.262043	-63.194802	-13.651538	179.109133
2.250000	-13.516724	-128.555463	-0.272001	-64.627371	-0.272001	-64.627371	-13.474901	177.012747
2.300000	-13.346578	-129.332991	-0.282132	-66.060207	-0.282132	-66.060207	-13.302329	174.913585
2.350000	-13.180354	-130.108008	-0.292437	-67.493342	-0.292437	-67.493342	-13.133622	172.811699
2.400000	-13.017854	-130.880670	-0.302920	-68.926806	-0.302920	-68.926806	-12.968592	170.707150
2.450000	-12.858890	-131.651136	-0.313584	-70.360631	-0.313584	-70.360631	-12.807061	168.600013
2.500000	-12.703287	-132.419576	-0.324431	-71.794845	-0.324431	-71.794845	-12.648859	166.490372
2.550000	-12.550885	-133.186128	-0.335469	-73.229486	-0.335469	-73.229486	-12.493833	164.378273
2.600000	-12.401518	-133.951020	-0.346698	-74.664572	-0.346698	-74.664572	-12.341823	162.263875
2.650000	-12.255037	-134.714438	-0.358123	-76.100127	-0.358123	-76.100127	-12.192685	160.147296
2.700000	-12.111304	-135.476577	-0.369746	-77.536175	-0.369746	-77.536175	-12.046283	158.028661
2.750000	-11.970185	-136.237635	-0.381574	-78.972740	-0.381574	-78.972740	-11.902486	155.908105
2.800000	-11.831556	-136.997814	-0.393610	-80.409840	-0.393610	-80.409840	-11.761173	153.785774
2.850000	-11.695300	-137.757323	-0.405859	-81.847494	-0.405859	-81.847494	-11.622225	151.661822
2.900000	-11.561306	-138.516372	-0.418327	-83.285721	-0.418327	-83.285721	-11.485534	149.536413
2.950000	-11.429469	-139.275175	-0.431019	-84.724534	-0.431019	-84.724534	-11.350993	147.409719
3.000000	-11.299690	-140.033949	-0.443941	-86.163948	-0.443941	-86.163948	-11.218504	145.281922
3.050000	-11.171876	-140.792915	-0.457098	-87.603972	-0.457098	-87.603972	-11.087972	143.153212
3.100000	-11.045938	-141.552292	-0.470495	-89.044618	-0.470495	-89.044618	-10.959308	141.023788
3.150000	-10.921794	-142.312315	-0.484142	-90.485898	-0.484142	-90.485898	-10.832426	138.893853
3.200000	-10.799365	-143.073214	-0.498044	-91.927818	-0.498044	-91.927818	-10.707246	136.763629
3.250000	-10.678577	-143.835208	-0.512205	-93.370374	-0.512205	-93.370374	-10.583693	134.633345
3.300000	-10.559361	-144.598523	-0.526631	-94.813566	-0.526631	-94.813566	-10.461696	132.503229
3.350000	-10.441653	-145.363383	-0.541328	-96.257392	-0.541328	-96.257392	-10.341188	130.373519
3.400000	-10.325391	-146.130013	-0.556304	-97.701850	-0.556304	-97.701850	-10.222108	128.244457
3.450000	-10.210520	-146.898637	-0.571563	-99.146932	-0.571563	-99.146932	-10.104396	126.116293
3.500000	-10.096985	-147.669478	-0.587113	-100.592629	-0.587113	-100.592629	-9.987998	123.989281
3.550000	-9.984738	-148.442756	-0.602959	-102.038932	-0.602959	-102.038932	-9.872861	121.863681
3.600000	-9.873731	-149.218690	-0.619108	-103.485827	-0.619108	-103.485827	-9.758939	119.739758
3.650000	-9.763923	-149.997497	-0.635566	-104.933298	-0.635566	-104.933298	-9.646186	117.617780
3.700000	-9.655272	-150.779391	-0.652340	-106.381327	-0.652340	-106.381327	-9.534563	115.498019
3.750000	-9.547742	-151.564582	-0.669435	-107.829894	-0.669435	-107.829894	-9.424030	113.380752
3.800000	-9.441294	-152.353357	-0.686864	-109.278988	-0.686864	-109.278988	-9.314547	111.266325
3.850000	-9.335901	-153.145850	-0.704626	-110.728571	-0.704626	-110.728571	-9.206088	109.154963
3.900000	-9.231535	-153.942259	-0.722728	-112.178617	-0.722728	-112.178617	-9.098625	107.046950
3.950000	-9.128168	-154.742779	-0.741175	-113.629095	-0.741175	-113.629095	-8.992131	104.942569
4.000000	-9.025778	-155.547600	-0.759972	-115.079974	-0.759972	-115.079974	-8.886585	102.842106
4.050000	-8.924342	-156.356908	-0.779125	-116.531219	-0.779125	-116.531219	-8.781964	100.745845
4.100000	-8.823842	-157.170883	-0.798639	-117.982796	-0.798639	-117.982796	-8.678251	98.654070
4.150000	-8.724258	-157.989701	-0.818518	-119.434665	-0.818518	-119.434665	-8.575429	96.567066
4.200000	-8.625577	-158.813530	-0.838768	-120.886786	-0.838768	-120.886786	-8.473486	94.485113
4.250000	-8.527783	-159.642534	-0.859393	-122.339117	-0.859393	-122.339117	-8.372408	92.408493
4.300000	-8.430865	-160.476873	-0.880396	-123.791614	-0.880396	-123.791614	-8.272187	90.337484
4.350000	-8.334813	-161.316697	-0.901783	-125.244230	-0.901783	-125.244230	-8.172815	88.272361
4.400000	-8.239614	-162.162215	-0.923559	-126.696919	-0.923559	-126.696919	-8.074283	86.213466
4.450000	-8.145263	-163.013571	-0.945729	-128.149629	-0.945729	-128.149629	-7.976587	84.161078
4.500000	-8.051755	-163.870837	-0.968291	-129.602307	-0.968291	-129.602307	-7.879728	82.115393
4.550000	-7.959086	-164.734138	-0.991249	-131.054902	-0.991249	-131.054902	-7.783703	80.076673
4.600000	-7.867251	-165.603595	-1.014605	-132.507360	-1.014605	-132.507360	-7.688513	78.045171
4.650000	-7.776248	-166.479320	-1.038360	-133.959624	-1.038360	-133.959624	-7.594160	76.021139
4.700000	-7.686075	-167.361420	-1.062516	-135.411638	-1.062516	-135.411638	-7.500645	74.004821
4.750000	-7.596731	-168.249994	-1.087075	-136.863344	-1.087075	-136.863344	-7.407973	71.996457
4.800000	-7.508217	-169.145135	-1.112037	-138.314684	-1.112037	-138.314684	-7.316146	69.996279
4.850000	-7.420533	-170.046931	-1.137403	-139.765598	-1.137403	-139.765598	-7.225170	68.004515
4.900000	-7.333680	-170.955460	-1.163173	-141.216025	-1.163173	-141.216025	-7.135050	66.021386
4.950000	-7.247662	-171.870796	-1.189347	-142.665905	-1.189347	-142.665905	-7.045793	64.047105
5.000000	-7.162479	-172.793006	-1.215923	-144.115175	-1.215923	-144.115175	-6.957406	62.081881
5.050000	-7.078136	-173.722302	-1.242909	-145.563758	-1.242909	-145.563758	-6.869895	60.126118
5.100000	-6.994637	-174.658588	-1.270294	-147.011605	-1.270294	-147.011605	-6.783269	58.179813
5.150000	-6.911985	-175.601911	-1.298077	-148.458654	-1.298077	-148.458654	-6.697536	56.243152
5.200000	-6.830184	-176.552314	-1.326256	-149.904840	-1.326256	-149.904840	-6.612703	54.316313
5.250000	-6.749239	-177.509830	-1.354829	-151.350103	-1.354829	-151.350103	-6.528779	52.399467
5.300000	-6.669153	-178.474491	-1.383791	-152.794380	-1.383791	-152.794380	-6.445771	50.492777
5.350000	-6.589931	-179.446318	-1.413139	-154.237609	-1.413139	-154.237609	-6.363687	48.596399
5.400000	-6.511578	179.574668	-1.442870	-155.679728	-1.442870	-155.679728	-6.282535	46.710481
5.450000	-6.434098	178.588456	-1.472979	-157.120677	-1.472979	-157.120677	-6.202321	44.835165
5.500000	-6.357495	177.595038	-1.503461	-158.560396	-1.503461	-158.560396	-6.123055	42.970584
5.550000	-6.281774	176.594412	-1.534311	-159.998824	-1.534311	-159.998824	-6.044742	41.116865
5.600000	-6.206939	175.586578	-1.565524	-161.435904	-1.565524	-161.435904	-5.967389	39.274124
5.650000	-6.132996	174.571466	-1.597096	-162.871562	-1.597096	-162.871562	-5.891006	37.442595
5.700000	-6.059950	173.549087	-1.629020	-164.305740	-1.629020	-164.305740	-5.815600	35.622386
5.750000	-5.987802	172.519536	-1.661288	-165.738397	-1.661288	-165.738397	-5.741172	33.813471
5.800000	-5.916554	171.482832	-1.693893	-167.169482	-1.693893	-167.169482	-5.667729	32.015938
5.850000	-5.846210	170.438998	-1.726827	-168.598940	-1.726827	-168.598940	-5.595273	30.229870
5.900000	-5.776771	169.388061	-1.760082	-170.026722	-1.760082	-170.026722	-5.523810	28.455341
5.950000	-5.708241	168.330052	-1.793652	-171.452778	-1.793652	-171.452778	-5.453342	26.692417
6.000000	-5.640620	167.265004	-1.827527	-172.877060	-1.827527	-172.877060	-5.383873	24.941160
6.050000	-5.573910	166.192953	-1.861699	-174.299524	-1.861699	-174.299524	-5.315405	23.201624
6.100000	-5.508111	165.113939	-1.896159	-175.720125	-1.896159	-175.720125	-5.247939	21.473855
6.150000	-5.443225	164.028002	-1.930899	-177.138822	-1.930899	-177.138822	-5.181476	19.757894
6.200000	-5.379250	162.935188	-1.965910	-178.555573	-1.965910	-178.555573	-5.116018	18.053776
6.250000	-5.316187	161.835540	-2.001181	-179.970342	-2.001181	-179.970342	-5.051565	16.361529
6.300000	-5.254044	160.728962	-2.036705	178.616952	-2.036705	178.616952	-4.988126	14.681432
6.350000	-5.192811	159.615651	-2.072471	177.206300	-2.072471	177.206300	-4.925692	13.013245
6.400000	-5.132485	158.495659	-2.108467	175.797733	-2.108467	175.797733	-4.864258	11.356976
6.450000	-5.073063	157.369037	-2.144685	174.391281	-2.144685	174.391281	-4.803824	9.712629
6.500000	-5.014543	156.235839	-2.181113	172.986970	-2.181113	172.986970	-4.744387	8.080203
6.550000	-4.956921	155.096119	-2.217741	171.584826	-2.217741	171.584826	-4.685942	6.459690
6.600000	-4.900192	153.949934	-2.254560	170.184871	-2.254560	170.184871	-4.628487	4.851079
6.650000	-4.844354	152.797337	-2.291557	168.787125	-2.291557	168.787125	-4.572016	3.254353
6.700000	-4.789452	151.637770	-2.328724	167.391826	-2.328724	167.391826	-4.516587	1.670646
6.750000	-4.735383	150.472459	-2.366047	165.998577	-2.366047	165.998577	-4.462080	0.097741
6.800000	-4.682188	149.300908	-2.403517	164.607584	-2.403517	164.607584	-4.408541	-1.463363
6.850000	-4.629859	148.123175	-2.441124	163.218860	-2.441124	163.218860	-4.355966	-3.012701
6.900000	-4.578390	146.939315	-2.478857	161.832412	-2.478857	161.832412	-4.304347	-4.550316
6.950000	-4.527774	145.749386	-2.516705	160.448248	-2.516705	160.448248	-4.253677	-6.076251
7.000000	-4.478003	144.553443	-2.554658	159.066372	-2.554658	159.066372	-4.203950	-7.590556
7.050000	-4.429069	143.351543	-2.592704	157.686787	-2.592704	157.686787	-4.155157	-9.093284
7.100000	-4.380964	142.143740	-2.630835	156.309492	-2.630835	156.309492	-4.107291	-10.584491
7.150000	-4.333679	140.930091	-2.669038	154.934486	-2.669038	154.934486	-4.060343	-12.064240
7.200000	-4.287204	139.710649	-2.707304	153.561765	-2.707304	153.561765	-4.014304	-13.532592
7.250000	-4.241531	138.485469	-2.745622	152.191323	-2.745622	152.191323	-3.969167	-14.989616
7.300000	-4.196650	137.254603	-2.783983	150.823151	-2.783983	150.823151	-3.924921	-16.435382
7.350000	-4.152551	136.018104	-2.822377	149.457240	-2.822377	149.457240	-3.881557	-17.869964
7.400000	-4.109223	134.776025	-2.860792	148.093579	-2.860792	148.093579	-3.839066	-19.293439
7.450000	-4.066657	133.528415	-2.899221	146.732153	-2.899221	146.732153	-3.797438	-20.705885
7.500000	-4.024841	132.275325	-2.937654	145.372947	-2.937654	145.372947	-3.756664	-22.107385
7.550000	-3.983788	131.016572	-2.976072	144.016039	-2.976072	144.016039	-3.716760	-23.497556
7.600000	-3.943463	129.752442	-3.014474	142.661314	-3.014474	142.661314	-3.677690	-24.876961
7.650000	-3.903854	128.482984	-3.052852	141.308751	-3.052852	141.308751	-3.639442	-26.245690
7.700000	-3.864951	127.208245	-3.091197	139.958327	-3.091197	139.958327	-3.602005	-27.603834
7.750000	-3.826742	125.928273	-3.129499	138.610020	-3.129499	138.610020	-3.565370	-28.951488
7.800000	-3.789216	124.643113	-3.167752	137.263805	-3.167752	137.263805	-3.529526	-30.288749
7.850000	-3.752360	123.352813	-3.205947	135.919656	-3.205947	135.919656	-3.494462	-31.615712
7.900000	-3.716163	122.057416	-3.244076	134.577545	-3.244076	134.577545	-3.460167	-32.932480
7.950000	-3.680614	120.756969	-3.282131	133.237444	-3.282131	133.237444	-3.426631	-34.239151
8.000000	-3.645700	119.451517	-3.320106	131.899324	-3.320106	131.899324	-3.393843	-35.535830
8.050000	-3.611410	118.141105	-3.357994	130.563154	-3.357994	130.563154	-3.361792	-36.822621
8.100000	-3.577732	116.825776	-3.395788	129.228903	-3.395788	129.228903	-3.330467	-38.099629
8.150000	-3.544655	115.505576	-3.433481	127.896539	-3.433481	127.896539	-3.299858	-39.366961
8.200000	-3.512168	114.180550	-3.471068	126.566028	-3.471068	126.566028	-3.269954	-40.624726
8.250000	-3.480258	112.850743	-3.508541	125.237338	-3.508541	125.237338	-3.240745	-41.873031
8.300000	-3.448915	111.516200	-3.545897	123.910433	-3.545897	123.910433	-3.212220	-43.111989
8.350000	-3.418103	110.177235	-3.583146	122.585182	-3.583146	122.585182	-3.184334	-44.342236
8.400000	-3.387846	108.833510	-3.620260	121.261691	-3.620260	121.261691	-3.157127	-45.563129
8.450000	-3.358158	107.484811	-3.657217	119.940019	-3.657217	119.940019	-3.130618	-46.774272
8.500000	-3.328970	106.131807	-3.694052	118.619904	-3.694052	118.619904	-3.104721	-47.976992
8.550000	-3.300305	104.774194	-3.730738	117.301437	-3.730738	117.301437	-3.079470	-49.170719
8.600000	-3.272144	103.412111	-3.767277	115.984552	-3.767277	115.984552	-3.054844	-50.355738
8.650000	-3.244462	102.045777	-3.803677	114.669151	-3.803677	114.669151	-3.030811	-51.532495
8.700000	-3.217288	100.674825	-3.839905	113.355347	-3.839905	113.355347	-3.007414	-52.700288
8.750000	-3.190551	99.299972	-3.876006	112.042875	-3.876006	112.042875	-2.984560	-53.860524
8.800000	-3.164325	97.920372	-3.911912	110.732006	-3.911912	110.732006	-2.962352	-55.011571
8.850000	-3.138519	96.536975	-3.947685	109.422406	-3.947685	109.422406	-2.940670	-56.155279
8.900000	-3.113184	95.149200	-3.983276	108.114252	-3.983276	108.114252	-2.919583	-57.290522
8.950000	-3.088274	93.757501	-4.018713	106.807381	-4.018713	106.807381	-2.899033	-58.418185
9.000000	-3.063796	92.361785	-4.053982	105.501812	-4.053982	105.501812	-2.879031	-59.538083
9.050000	-3.039750	90.962042	-4.089076	104.197535	-4.089076	104.197535	-2.859577	-60.650187
9.100000	-3.016101	89.558638	-4.124017	102.894425	-4.124017	102.894425	-2.840624	-61.755197
9.150000	-2.992888	88.151127	-4.158763	101.592614	-4.158763	101.592614	-2.822229	-62.852229
9.200000	-2.970047	86.740233	-4.193366	100.291867	-4.193366	100.291867	-2.804301	-63.942672
9.250000	-2.947636	85.325321	-4.227767	98.992379	-4.227767	98.992379	-2.786922	-65.025259
9.300000	-2.925590	83.907098	-4.262018	97.693925	-4.262018	97.693925	-2.770002	-66.101340
9.350000	-2.903944	82.485234	-4.296084	96.396608	-4.296084	96.396608	-2.753587	-67.170227
9.400000	-2.882672	81.060012	-4.329982	95.100342	-4.329982	95.100342	-2.737642	-68.232436
9.450000	-2.861770	79.631517	-4.363713	93.805104	-4.363713	93.805104	-2.722160	-69.288084
9.500000	-2.841252	78.199651	-4.397259	92.510932	-4.397259	92.510932	-2.707158	-70.336909
9.550000	-2.821078	76.764873	-4.430655	91.217689	-4.430655	91.217689	-2.692579	-71.379779
9.600000	-2.801299	75.326744	-4.463850	89.925532	-4.463850	89.925532	-2.678490	-72.415711
9.650000	-2.781850	73.885942	-4.496901	88.634255	-4.496901	88.634255	-2.664801	-73.446030
9.700000	-2.762784	72.442068	-4.529756	87.344013	-4.529756	87.344013	-2.651578	-74.469792
9.750000	-2.744055	70.995606	-4.562457	86.054665	-4.562457	86.054665	-2.638759	-75.487928
9.800000	-2.725685	69.546457	-4.594981	84.766276	-4.594981	84.766276	-2.626367	-76.500103
9.850000	-2.707668	68.094783	-4.627332	83.478820	-4.627332	83.478820	-2.614389	-77.506546
9.900000	-2.689988	66.640795	-4.659523	82.192259	-4.659523	82.192259	-2.602803	-78.507594
9.950000	-2.672675	65.184389	-4.691525	80.906680	-4.691525	80.906680	-2.591639	-79.502834
10.000000	-2.655680	63.726027	-4.723382	79.621941	-4.723382	79.621941	-2.580834	-80.493218
