! freq	dB(S11)	phase(S11)	dB(S12)	phase(S12)	
!     	dB(S21)	phase(S21)	dB(S22)	phase(S22)	
!S-par simulation data
#  GHz  S  DB  R 50
0.000000	-77.599399	0.000000	-0.001145	0.000000	-0.001145	0.000000	-77.599399	0.000000
0.050000	-52.182235	-83.192253	-0.006850	-3.752211	-0.006850	-3.752211	-52.188642	-83.864372
0.100000	-46.780930	-90.806382	-0.014195	-7.454117	-0.014195	-7.454117	-46.794382	-91.628573
0.150000	-43.466919	-96.531078	-0.019620	-11.141479	-0.019620	-11.141479	-43.486837	-97.724241
0.200000	-41.095539	-101.409235	-0.024332	-14.825980	-0.024332	-14.825980	-41.116161	-103.003811
0.250000	-39.273601	-105.838044	-0.028852	-18.508774	-0.028852	-18.508774	-39.291972	-107.836862
0.300000	-37.812795	-110.034544	-0.033328	-22.190099	-0.033328	-22.190099	-37.827586	-112.435105
0.350000	-36.611143	-114.083254	-0.037758	-25.870287	-0.037758	-25.870287	-36.621729	-116.882693
0.400000	-35.605990	-118.033225	-0.042119	-29.549886	-0.042119	-29.549886	-35.612194	-121.229477
0.450000	-34.758574	-121.910297	-0.046388	-33.229492	-0.046388	-33.229492	-34.760458	-125.502427
0.500000	-34.040265	-125.733445	-0.050562	-36.909668	-0.050562	-36.909668	-34.038061	-129.721848
0.550000	-33.431344	-129.514340	-0.054642	-40.590880	-0.054642	-40.590880	-33.425352	-133.900750
0.600000	-32.917713	-133.261178	-0.058634	-44.273522	-0.058634	-44.273522	-32.908238	-138.048771
0.650000	-32.490053	-136.979740	-0.062548	-47.957957	-0.062548	-47.957957	-32.477362	-142.173442
0.700000	-32.140342	-140.675153	-0.066392	-51.644462	-0.066392	-51.644462	-32.124627	-146.281907
0.750000	-31.862097	-144.351460	-0.070176	-55.333248	-0.070176	-55.333248	-31.843446	-150.380596
0.800000	-31.651186	-148.011526	-0.073910	-59.024523	-0.073910	-59.024523	-31.629553	-154.475490
0.850000	-31.507051	-151.656993	-0.077601	-62.718588	-0.077601	-62.718588	-31.482217	-158.573073
0.900000	-31.424951	-155.289903	-0.081257	-66.415496	-0.081257	-66.415496	-31.396527	-162.680017
0.950000	-31.405371	-158.910480	-0.084887	-70.115485	-0.084887	-70.115485	-31.372741	-166.804024
1.000000	-31.448650	-162.518238	-0.088498	-73.818744	-0.088498	-73.818744	-31.410935	-170.954089
1.050000	-31.556142	-166.111479	-0.092098	-77.525469	-0.092098	-77.525469	-31.512148	-175.141077
1.100000	-31.730305	-169.686956	-0.095696	-81.235863	-0.095696	-81.235863	-31.678432	-179.378494
1.150000	-31.974854	-173.239348	-0.099300	-84.950138	-0.099300	-84.950138	-31.912976	176.316456
1.200000	-32.295013	-176.760469	-0.102920	-88.668513	-0.102920	-88.668513	-32.220277	171.921321
1.250000	-32.697900	179.761954	-0.106564	-92.391216	-0.106564	-92.391216	-32.606419	167.406088
1.300000	-33.194638	176.348200	-0.110243	-96.118592	-0.110243	-96.118592	-33.080866	162.724798
1.350000	-33.796713	173.025773	-0.113966	-99.850793	-0.113966	-99.850793	-33.652691	157.820521
1.400000	-34.521809	169.838600	-0.117743	-103.588074	-0.117743	-103.588074	-34.335495	152.606407
1.450000	-35.394532	166.856776	-0.121583	-107.330698	-0.121583	-107.330698	-35.146804	146.951321
1.500000	-36.450042	164.197326	-0.125495	-111.078935	-0.125495	-111.078935	-36.108760	140.649581
1.550000	-37.740279	162.067930	-0.129488	-114.833064	-0.129488	-114.833064	-37.247776	133.365095
1.600000	-39.344901	160.868747	-0.133571	-118.593373	-0.133571	-118.593373	-38.589684	124.526758
1.650000	-41.389451	161.461327	-0.137751	-122.360156	-0.137751	-122.360156	-40.138504	113.144614
1.700000	-44.059917	165.987682	-0.142036	-126.133719	-0.142036	-126.133719	-41.802379	97.600352
1.750000	-47.427593	-179.570785	-0.146431	-129.914380	-0.146431	-129.914380	-43.204955	76.067510
1.800000	-49.756977	-144.743064	-0.150943	-133.702467	-0.150943	-133.702467	-43.574629	49.398710
1.850000	-47.421875	-108.193722	-0.155575	-137.498325	-0.155575	-137.498325	-42.516742	23.854923
1.900000	-43.742766	-93.349130	-0.160333	-141.302409	-0.160333	-141.302409	-40.665337	4.567011
1.950000	-40.766159	-89.093680	-0.165221	-145.115115	-0.165221	-145.115115	-38.717609	-9.004094
2.000000	-38.429078	-89.040327	-0.170238	-148.936761	-0.170238	-148.936761	-36.934527	-18.897134
2.050000	-36.535116	-91.012901	-0.175388	-152.767783	-0.175388	-152.767783	-35.357738	-26.501239
2.100000	-34.952354	-94.132578	-0.180672	-156.608646	-0.180672	-156.608646	-33.968655	-32.631945
2.150000	-33.596482	-97.992816	-0.186092	-160.459850	-0.186092	-160.459850	-32.737504	-37.759781
2.200000	-32.411574	-102.384802	-0.191650	-164.321936	-0.191650	-164.321936	-31.636378	-42.163676
2.250000	-31.358637	-107.192593	-0.197352	-168.195486	-0.197352	-168.195486	-30.641735	-46.015327
2.300000	-30.409114	-112.347689	-0.203202	-172.081134	-0.203202	-172.081134	-29.734122	-49.424701
2.350000	-29.541104	-117.807094	-0.209209	-175.979563	-0.209209	-175.979563	-28.897346	-52.465288
2.400000	-28.737323	-123.538951	-0.215384	-179.891358	-0.215384	-179.891358	-28.117914	-55.191715
2.450000	-27.982689	-129.528058	-0.221750	176.182290	-0.221750	176.182290	-27.383394	-57.635265
2.500000	-27.265055	-135.750757	-0.228326	172.240735	-0.228326	172.240735	-26.683619	-59.832601
2.550000	-26.573206	-142.189802	-0.235148	168.282851	-0.235148	168.282851	-26.008903	-61.810104
2.600000	-25.897930	-148.821242	-0.242255	164.307793	-0.242255	164.307793	-25.351175	-63.598294
2.650000	-25.230981	-155.620526	-0.249699	160.314478	-0.249699	160.314478	-24.703064	-65.226113
2.700000	-24.565350	-162.559529	-0.257546	156.301750	-0.257546	156.301750	-24.058184	-66.724501
2.750000	-23.895318	-169.606776	-0.265877	152.268379	-0.265877	152.268379	-23.411190	-68.126629
2.800000	-23.216532	-176.728268	-0.274793	148.213067	-0.274793	148.213067	-22.757863	-69.467558
2.850000	-22.525474	176.111194	-0.284419	144.134249	-0.284419	144.134249	-22.094640	-70.783520
2.900000	-21.820903	168.947107	-0.294900	140.030610	-0.294900	140.030610	-21.419949	-72.111173
2.950000	-21.102769	161.812235	-0.306405	135.900740	-0.306405	135.900740	-20.733263	-73.485132
3.000000	-20.371971	154.735640	-0.319134	131.743133	-0.319134	131.743133	-20.034925	-74.937234
3.050000	-19.630320	147.741690	-0.333322	127.556266	-0.333322	127.556266	-19.326150	-76.495570
3.100000	-18.880293	140.849440	-0.349238	123.338615	-0.349238	123.338615	-18.608832	-78.183785
3.150000	-18.124422	134.073153	-0.367205	119.088502	-0.367205	119.088502	-17.884998	-80.021622
3.200000	-17.365865	127.421273	-0.387579	114.804467	-0.387579	114.804467	-17.157352	-82.023311
3.250000	-16.608585	120.895923	-0.410723	110.485593	-0.410723	110.485593	-16.429463	-84.196265
3.300000	-15.854812	114.498554	-0.437117	106.130215	-0.437117	106.130215	-15.703350	-86.548200
3.350000	-15.107364	108.226110	-0.467267	101.737213	-0.467267	101.737213	-14.981664	-89.081532
3.400000	-14.369751	102.071241	-0.501650	97.306390	-0.501650	97.306390	-14.267790	-91.792607
3.450000	-13.643780	96.028255	-0.540890	92.836862	-0.540890	92.836862	-13.563535	-94.680131
3.500000	-12.931373	90.089887	-0.585651	88.328274	-0.585651	88.328274	-12.870846	-97.740043
3.550000	-12.234805	84.247239	-0.636564	83.781219	-0.636564	83.781219	-12.192048	-100.964572
3.600000	-11.555726	78.492502	-0.694329	79.196454	-0.694329	79.196454	-11.528874	-104.346319
3.650000	-10.895580	72.818381	-0.759674	74.575270	-0.759674	74.575270	-10.882874	-107.877047
3.700000	-10.255634	67.218346	-0.833343	69.919553	-0.833343	69.919553	-10.255428	-111.547846
3.750000	-9.636996	61.686817	-0.916081	65.231823	-0.916081	65.231823	-9.647763	-115.349249
3.800000	-9.040445	56.219936	-1.008726	60.515004	-1.008726	60.515004	-9.060777	-119.272502
3.850000	-8.467061	50.813625	-1.111895	55.773351	-1.111895	55.773351	-8.495668	-123.305795
3.900000	-7.917519	45.465704	-1.226246	51.011455	-1.226246	51.011455	-7.953227	-127.438369
3.950000	-7.392358	40.175131	-1.352378	46.234566	-1.352378	46.234566	-7.434103	-131.659137
4.000000	-6.891978	34.941933	-1.490809	41.448547	-1.490809	41.448547	-6.938803	-135.956749
4.050000	-6.416640	29.767122	-1.641958	36.659794	-1.641958	36.659794	-6.467682	-140.319659
4.100000	-5.966483	24.653078	-1.806216	31.875240	-1.806216	31.875240	-6.020966	-144.736557
4.150000	-5.541502	19.602107	-1.983704	27.102127	-1.983704	27.102127	-5.598730	-149.195342
4.200000	-5.141501	14.617196	-2.174443	22.347796	-2.174443	22.347796	-5.200855	-153.684351
4.250000	-4.766141	9.701874	-2.378346	17.619641	-2.378346	17.619641	-4.827064	-158.192322
4.300000	-4.414941	4.859873	-2.595191	12.924950	-2.595191	12.924950	-4.476932	-162.708375
4.350000	-4.087289	0.094965	-2.824628	8.270769	-2.824628	8.270769	-4.149895	-167.222139
4.400000	-3.782518	-4.588734	-3.066208	3.664062	-3.066208	3.664062	-3.845326	-171.723745
4.450000	-3.499798	-9.187763	-3.319326	-0.888888	-3.319326	-0.888888	-3.562430	-176.204020
4.500000	-3.238133	-13.699525	-3.583275	-5.382753	-3.583275	-5.382753	-3.300243	179.345183
4.550000	-2.996519	-18.121437	-3.857302	-9.812595	-3.857302	-9.812595	-3.057788	174.931227
4.600000	-2.773902	-22.451425	-4.140594	-14.174168	-4.140594	-14.174168	-2.834033	170.560604
4.650000	-2.569195	-26.687958	-4.432302	-18.463938	-4.432302	-18.463938	-2.627911	166.238925
4.700000	-2.381330	-30.829804	-4.731538	-22.678867	-4.731538	-22.678867	-2.438369	161.971097
4.750000	-2.209264	-34.876022	-5.037381	-26.816377	-5.037381	-26.816377	-2.264381	157.761399
4.800000	-2.051809	-38.827494	-5.348976	-30.875611	-5.348976	-30.875611	-2.104775	153.612513
4.850000	-1.907904	-42.684818	-5.665469	-34.855700	-5.665469	-34.855700	-1.958504	149.526840
4.900000	-1.776631	-46.448036	-5.985935	-38.755460	-5.985935	-38.755460	-1.824660	145.506852
4.950000	-1.656746	-50.121064	-6.309819	-42.577209	-6.309819	-42.577209	-1.702020	141.551921
5.000000	-1.547487	-53.704134	-6.636242	-46.320225	-6.636242	-46.320225	-1.589828	137.663778
5.050000	-1.448149	-57.197417	-6.964254	-49.983782	-6.964254	-49.983782	-1.487388	133.844103
5.100000	-1.357715	-60.605141	-7.293412	-53.570850	-7.293412	-53.570850	-1.393698	130.091267
5.150000	-1.275421	-63.929752	-7.623114	-57.082928	-7.623114	-57.082928	-1.308005	126.404781
5.200000	-1.200559	-67.173829	-7.952808	-60.521707	-7.952808	-60.521707	-1.229613	122.783899
5.250000	-1.132475	-70.340040	-8.281984	-63.889027	-8.281984	-63.889027	-1.157877	119.227667
5.300000	-1.070568	-73.431113	-8.610184	-67.186835	-8.610184	-67.186835	-1.092206	115.734965
5.350000	-1.014287	-76.449799	-8.936988	-70.417150	-8.936988	-70.417150	-1.032056	112.304546
5.400000	-0.963125	-79.398853	-9.262019	-73.582036	-9.262019	-73.582036	-0.976933	108.935067
5.450000	-0.916623	-82.281008	-9.584940	-76.683576	-9.584940	-76.683576	-0.926382	105.625120
5.500000	-0.874360	-85.098961	-9.905446	-79.723851	-9.905446	-79.723851	-0.879991	102.373252
5.550000	-0.835954	-87.855356	-10.223268	-82.704922	-10.223268	-82.704922	-0.837385	99.177984
5.600000	-0.801056	-90.552774	-10.538164	-85.628820	-10.538164	-85.628820	-0.798223	96.037829
5.650000	-0.769382	-93.193139	-10.849764	-88.496952	-10.849764	-88.496952	-0.762225	92.951872
5.700000	-0.740637	-95.778962	-11.157884	-91.311316	-11.157884	-91.311316	-0.729104	89.918594
5.750000	-0.714531	-98.313203	-11.462516	-94.074385	-11.462516	-94.074385	-0.698574	86.935969
5.800000	-0.690828	-100.798122	-11.763515	-96.787968	-11.763515	-96.787968	-0.670408	84.002582
5.850000	-0.669317	-103.235892	-12.060753	-99.453809	-12.060753	-99.453809	-0.644398	81.117052
5.900000	-0.649807	-105.628602	-12.354121	-102.073587	-12.354121	-102.073587	-0.620358	78.278036
5.950000	-0.632123	-107.978255	-12.643520	-104.648912	-12.643520	-104.648912	-0.598119	75.484227
6.000000	-0.616108	-110.286769	-12.928865	-107.181328	-12.928865	-107.181328	-0.577529	72.734363
6.050000	-0.601619	-112.555982	-13.210084	-109.672311	-13.210084	-109.672311	-0.558448	70.027220
6.100000	-0.588526	-114.787650	-13.487111	-112.123274	-13.487111	-112.123274	-0.540752	67.361616
6.150000	-0.576712	-116.983453	-13.759891	-114.535567	-13.759891	-114.535567	-0.524329	64.736411
6.200000	-0.566071	-119.144997	-14.028377	-116.910479	-14.028377	-116.910479	-0.509076	62.150505
6.250000	-0.556506	-121.273814	-14.292526	-119.249240	-14.292526	-119.249240	-0.494900	59.602838
6.300000	-0.547948	-123.370723	-14.552043	-121.552290	-14.552043	-121.552290	-0.481738	57.093174
6.350000	-0.540296	-125.437829	-14.807168	-123.821531	-14.807168	-123.821531	-0.469492	54.619701
6.400000	-0.533477	-127.476464	-15.057875	-126.058030	-15.057875	-126.058030	-0.458094	52.181471
6.450000	-0.527426	-129.487900	-15.304140	-128.262805	-15.304140	-128.262805	-0.447482	49.777576
6.500000	-0.522082	-131.473352	-15.545943	-130.436828	-15.545943	-130.436828	-0.437602	47.407135
6.550000	-0.517393	-133.433981	-15.783266	-132.581029	-15.783266	-132.581029	-0.428402	45.069305
6.600000	-0.513307	-135.370897	-16.016093	-134.696296	-16.016093	-134.696296	-0.419837	42.763269
6.650000	-0.509780	-137.285161	-16.244409	-136.783482	-16.244409	-136.783482	-0.411865	40.488241
6.700000	-0.506819	-139.175753	-16.467199	-138.840802	-16.467199	-138.840802	-0.404501	38.246358
6.750000	-0.504291	-141.047593	-16.686372	-140.874037	-16.686372	-140.874037	-0.397611	36.031336
6.800000	-0.502209	-142.899710	-16.901002	-142.881556	-16.901002	-142.881556	-0.391212	33.845111
6.850000	-0.500540	-144.732993	-17.111078	-144.864082	-17.111078	-144.864082	-0.385276	31.687000
6.900000	-0.499257	-146.548292	-17.316590	-146.822312	-17.316590	-146.822312	-0.379779	29.556342
6.950000	-0.498332	-148.346424	-17.517527	-148.756921	-17.517527	-148.756921	-0.374696	27.452499
7.000000	-0.497741	-150.128169	-17.713877	-150.668559	-17.713877	-150.668559	-0.370007	25.374854
7.050000	-0.497463	-151.894277	-17.905630	-152.557857	-17.905630	-152.557857	-0.365694	23.322806
7.100000	-0.497476	-153.645468	-18.092774	-154.425430	-18.092774	-154.425430	-0.361738	21.295778
7.150000	-0.497763	-155.382432	-18.275296	-156.271874	-18.275296	-156.271874	-0.358123	19.293204
7.200000	-0.498306	-157.105832	-18.453185	-158.097772	-18.453185	-158.097772	-0.354836	17.314540
7.250000	-0.499088	-158.816307	-18.626426	-159.903694	-18.626426	-159.903694	-0.351864	15.359255
7.300000	-0.500096	-160.514469	-18.795006	-161.690198	-18.795006	-161.690198	-0.349193	13.426833
7.350000	-0.501315	-162.200908	-18.958910	-163.457833	-18.958910	-163.457833	-0.346813	11.516774
7.400000	-0.502734	-163.876192	-19.118123	-165.207141	-19.118123	-165.207141	-0.344714	9.628588
7.450000	-0.504340	-165.540868	-19.272628	-166.938657	-19.272628	-166.938657	-0.342887	7.761801
7.500000	-0.506124	-167.195462	-19.422410	-168.652908	-19.422410	-168.652908	-0.341323	5.915951
7.550000	-0.508080	-168.840091	-19.567142	-170.349718	-19.567142	-170.349718	-0.340025	4.091453
7.600000	-0.510194	-170.475681	-19.707127	-172.030359	-19.707127	-172.030359	-0.338974	2.286960
7.650000	-0.512455	-172.102701	-19.842346	-173.695352	-19.842346	-173.695352	-0.338163	0.502042
7.700000	-0.514857	-173.721609	-19.972777	-175.345218	-19.972777	-175.345218	-0.337587	-1.263721
7.750000	-0.517390	-175.332844	-20.098400	-176.980479	-20.098400	-176.980479	-0.337240	-3.010739
7.800000	-0.520049	-176.936833	-20.219194	-178.601658	-20.219194	-178.601658	-0.337117	-4.739415
7.850000	-0.522827	-178.533987	-20.335137	179.790720	-20.335137	179.790720	-0.337213	-6.450141
7.900000	-0.525716	179.875292	-20.446208	178.196124	-20.446208	178.196124	-0.337522	-8.143305
7.950000	-0.528711	178.290618	-20.552384	176.614023	-20.552384	176.614023	-0.338042	-9.819284
8.000000	-0.531807	176.711614	-20.653642	175.043877	-20.653642	175.043877	-0.338769	-11.478450
8.050000	-0.534997	175.137914	-20.749961	173.485145	-20.749961	173.485145	-0.339698	-13.121169
8.100000	-0.538277	173.569161	-20.841318	171.937277	-20.841318	171.937277	-0.340827	-14.747799
8.150000	-0.541641	172.005010	-20.927692	170.399721	-20.927692	170.399721	-0.342153	-16.358694
8.200000	-0.545085	170.445123	-21.009059	168.871917	-21.009059	168.871917	-0.343672	-17.954202
8.250000	-0.548603	168.889169	-21.085400	167.353299	-21.085400	167.353299	-0.345383	-19.534665
8.300000	-0.552191	167.336828	-21.156692	165.843296	-21.156692	165.843296	-0.347284	-21.100420
8.350000	-0.555849	165.787947	-21.222596	164.341747	-21.222596	164.341747	-0.349382	-22.650997
8.400000	-0.559557	164.241542	-21.284447	162.846346	-21.284447	162.846346	-0.351632	-24.190121
8.450000	-0.563340	162.698634	-21.339470	161.359915	-21.339470	161.359915	-0.354123	-25.711248
8.500000	-0.567167	161.157671	-21.390199	159.878651	-21.390199	159.878651	-0.356770	-27.221076
8.550000	-0.571037	159.618526	-21.436589	158.402298	-21.436589	158.402298	-0.359572	-28.719740
8.600000	-0.574961	158.081520	-21.476956	156.931943	-21.476956	156.931943	-0.362585	-30.203551
8.650000	-0.578930	156.546080	-21.511721	155.466286	-21.511721	155.466286	-0.365794	-31.673970
8.700000	-0.582931	155.011658	-21.542095	154.003869	-21.542095	154.003869	-0.369156	-33.134097
8.750000	-0.586965	153.478132	-21.568051	152.544437	-21.568051	152.544437	-0.372673	-34.584067
8.800000	-0.591043	151.945535	-21.586730	151.088737	-21.586730	151.088737	-0.376443	-36.018002
8.850000	-0.595147	150.413175	-21.600973	149.634622	-21.600973	149.634622	-0.380368	-37.442496
8.900000	-0.599275	148.880936	-21.610764	148.181842	-21.610764	148.181842	-0.384449	-38.857678
8.950000	-0.603432	147.348584	-21.614875	146.730207	-21.614875	146.730207	-0.388731	-40.261294
9.000000	-0.607617	145.815664	-21.612885	145.278885	-21.612885	145.278885	-0.393230	-41.652997
9.050000	-0.611822	144.282086	-21.606412	143.827318	-21.606412	143.827318	-0.397891	-43.036219
9.100000	-0.616048	142.747732	-21.595455	142.375274	-21.595455	142.375274	-0.402715	-44.411087
9.150000	-0.620304	141.211708	-21.577539	140.921608	-21.577539	140.921608	-0.407794	-45.773531
9.200000	-0.624584	139.674137	-21.554692	139.466145	-21.554692	139.466145	-0.413059	-47.127585
9.250000	-0.628887	138.134992	-21.527334	138.008777	-21.527334	138.008777	-0.418498	-48.474105
9.300000	-0.633219	136.593764	-21.494633	136.548793	-21.494633	136.548793	-0.424143	-49.811945
9.350000	-0.637592	135.049462	-21.455268	135.084819	-21.455268	135.084819	-0.430052	-51.139604
9.400000	-0.642000	133.502754	-21.411344	133.617704	-21.411344	133.617704	-0.436148	-52.460548
9.450000	-0.646445	131.953506	-21.362886	132.147277	-21.362886	132.147277	-0.442435	-53.774902
9.500000	-0.650956	130.400126	-21.307659	130.671508	-21.307659	130.671508	-0.449006	-55.080084
9.550000	-0.655533	128.842941	-21.246906	129.190933	-21.246906	129.190933	-0.455820	-56.378226
9.600000	-0.660177	127.282325	-21.181534	127.706104	-21.181534	127.706104	-0.462846	-57.670600
9.650000	-0.664900	125.717771	-21.111101	126.216465	-21.111101	126.216465	-0.470108	-58.956857
9.700000	-0.669764	124.147021	-21.033086	124.719567	-21.033086	124.719567	-0.477719	-60.234989
9.750000	-0.674742	122.571885	-20.950301	123.217761	-20.950301	123.217761	-0.485570	-61.508187
9.800000	-0.679845	120.992213	-20.862779	121.710977	-20.862779	121.710977	-0.493667	-62.776579
9.850000	-0.685145	119.405933	-20.768380	120.197233	-20.768380	120.197233	-0.502110	-64.038771
9.900000	-0.690676	117.812935	-20.667388	118.676842	-20.667388	118.676842	-0.510898	-65.295635
9.950000	-0.696414	116.214377	-20.561390	117.151190	-20.561390	117.151190	-0.519970	-66.548543
10.000000	-0.702376	114.610097	-20.450430	115.620254	-20.450430	115.620254	-0.529333	-67.797627
