! freq	dB(S11)	phase(S11)	dB(S12)	phase(S12)	
!     	dB(S21)	phase(S21)	dB(S22)	phase(S22)	
!S-par simulation data
#  GHz  S  DB  R 50
0.000000	-76.094309	0.000000	-0.001362	0.000000	-0.001362	0.000000	-76.094309	0.000000
0.050000	-49.028152	76.415788	-0.006238	-3.295816	-0.006238	-3.295816	-49.026972	76.420231
0.100000	-43.462845	77.640071	-0.013264	-6.547578	-0.013264	-6.547578	-43.462670	77.628374
0.150000	-40.038649	76.314748	-0.018544	-9.783252	-0.018544	-9.783252	-40.038849	76.296158
0.200000	-37.570049	74.143448	-0.022958	-13.016283	-0.022958	-13.016283	-37.570392	74.118962
0.250000	-35.638958	71.570659	-0.027120	-16.248886	-0.027120	-16.248886	-35.639358	71.540535
0.300000	-34.052412	68.805876	-0.031306	-19.481136	-0.031306	-19.481136	-34.052832	68.770262
0.350000	-32.705517	65.936021	-0.035570	-22.712930	-0.035570	-22.712930	-32.705944	65.895068
0.400000	-31.535029	63.002039	-0.039907	-25.944286	-0.039907	-25.944286	-31.535460	62.955916
0.450000	-30.500033	60.025248	-0.044295	-29.175345	-0.044295	-29.175345	-30.500480	59.974139
0.500000	-29.573394	57.021247	-0.048708	-32.406379	-0.048708	-32.406379	-29.573878	56.965285
0.550000	-28.735518	53.994184	-0.053137	-35.637639	-0.053137	-35.637639	-28.736066	53.933423
0.600000	-27.971789	50.942974	-0.057578	-38.869382	-0.057578	-38.869382	-27.972420	50.877380
0.650000	-27.270747	47.863351	-0.062039	-42.101892	-0.062039	-42.101892	-27.271467	47.792836
0.700000	-26.622817	44.755700	-0.066531	-45.335318	-0.066531	-45.335318	-26.623613	44.680215
0.750000	-26.020241	41.621506	-0.071068	-48.569814	-0.071068	-48.569814	-26.021092	41.541090
0.800000	-25.456842	38.463898	-0.075670	-51.805572	-0.075670	-51.805572	-25.457727	38.378686
0.850000	-24.927910	35.289343	-0.080354	-55.042675	-0.080354	-55.042675	-24.928816	35.199522
0.900000	-24.429934	32.103286	-0.085133	-58.281179	-0.085133	-58.281179	-24.430857	32.009051
0.950000	-23.960294	28.909724	-0.090021	-61.521149	-0.090021	-61.521149	-23.961233	28.811256
1.000000	-23.516992	25.711444	-0.095027	-64.762627	-0.095027	-64.762627	-23.517951	25.608900
1.050000	-23.098476	22.510169	-0.100157	-68.005644	-0.100157	-68.005644	-23.099460	22.403681
1.100000	-22.703526	19.306870	-0.105414	-71.250229	-0.105414	-71.250229	-22.704537	19.196549
1.150000	-22.331177	16.102039	-0.110796	-74.496408	-0.110796	-74.496408	-22.332219	15.987980
1.200000	-21.980679	12.895883	-0.116297	-77.744214	-0.116297	-77.744214	-21.981755	12.778162
1.250000	-21.651468	9.688451	-0.121906	-80.993685	-0.121906	-80.993685	-21.652580	9.567131
1.300000	-21.343372	6.479688	-0.127611	-84.244916	-0.127611	-84.244916	-21.344522	6.354816
1.350000	-21.055973	3.269569	-0.133393	-87.497941	-0.133393	-87.497941	-21.057161	3.141175
1.400000	-20.789165	0.058042	-0.139228	-90.752855	-0.139228	-90.752855	-20.790392	-0.073860
1.450000	-20.542979	-3.154921	-0.145091	-94.009778	-0.145091	-94.009778	-20.544246	-3.290340
1.500000	-20.317577	-6.369324	-0.150954	-97.268860	-0.150954	-97.268860	-20.318885	-6.508288
1.550000	-20.113253	-9.585128	-0.156785	-100.530282	-0.156785	-100.530282	-20.114603	-9.727690
1.600000	-19.930435	-12.802259	-0.162551	-103.794267	-0.162551	-103.794267	-19.931827	-12.948498
1.650000	-19.769691	-16.020590	-0.168217	-107.061075	-0.168217	-107.061075	-19.771127	-16.170617
1.700000	-19.631739	-19.239945	-0.173747	-110.331011	-0.173747	-110.331011	-19.633222	-19.393904
1.750000	-19.517463	-22.460084	-0.179102	-113.604429	-0.179102	-113.604429	-19.518994	-22.618158
1.800000	-19.427928	-25.680692	-0.184247	-116.881734	-0.184247	-116.881734	-19.429511	-25.843111
1.850000	-19.364409	-28.901369	-0.189144	-120.163381	-0.189144	-120.163381	-19.366049	-29.068412
1.900000	-19.328743	-32.121585	-0.193756	-123.449945	-0.193756	-123.449945	-19.330445	-32.293599
1.950000	-19.322805	-35.340651	-0.198050	-126.742018	-0.198050	-126.742018	-19.324578	-35.518058
2.000000	-19.348454	-38.557709	-0.202001	-130.040187	-0.202001	-130.040187	-19.350306	-38.741014
2.050000	-19.408258	-41.771634	-0.205584	-133.345150	-0.205584	-133.345150	-19.410201	-41.961450
2.100000	-19.504341	-44.981110	-0.208791	-136.657467	-0.208791	-136.657467	-19.506391	-45.178160
2.150000	-19.642027	-48.183990	-0.211594	-139.978301	-0.211594	-139.978301	-19.644203	-48.389193
2.200000	-19.825274	-51.377727	-0.213995	-143.308429	-0.213995	-143.308429	-19.827602	-51.592203
2.250000	-20.059952	-54.558657	-0.216000	-146.648877	-0.216000	-146.648877	-20.062465	-54.783807
2.300000	-20.352668	-57.721926	-0.217629	-150.000592	-0.217629	-150.000592	-20.355411	-57.959503
2.350000	-20.712220	-60.860595	-0.218911	-153.364656	-0.218911	-153.364656	-20.715254	-61.112843
2.400000	-21.149944	-63.964689	-0.219891	-156.742213	-0.219891	-156.742213	-21.153353	-64.234529
2.450000	-21.680764	-67.019486	-0.220630	-160.134455	-0.220630	-160.134455	-21.684669	-67.310812
2.500000	-22.324854	-70.002552	-0.221204	-163.542630	-0.221204	-163.542630	-22.329439	-70.320703
2.550000	-23.111409	-72.876495	-0.221712	-166.968224	-0.221712	-166.968224	-23.116961	-73.229169
2.600000	-24.080703	-75.581316	-0.222276	-170.412386	-0.222276	-170.412386	-24.087704	-75.979890
2.650000	-25.295710	-78.007367	-0.223039	-173.876458	-0.223039	-173.876458	-25.305038	-78.469799
2.700000	-26.859943	-79.936400	-0.224170	-177.361791	-0.224170	-177.361791	-26.873395	-80.493363
2.750000	-28.960641	-80.868021	-0.225865	179.130270	-0.225865	179.130270	-28.982565	-81.577913
2.800000	-31.985501	-79.373487	-0.228350	175.598405	-0.228350	175.598405	-32.029677	-80.365498
2.850000	-36.868379	-69.201470	-0.231892	172.041124	-0.231892	172.041124	-37.006282	-70.795597
2.900000	-42.621115	-10.812137	-0.236781	168.457347	-0.236781	168.457347	-43.161457	-10.633894
2.950000	-36.082454	45.466959	-0.243337	164.846037	-0.243337	164.846037	-36.197617	46.978002
3.000000	-30.630085	55.360301	-0.251918	161.206224	-0.251918	161.206224	-30.662213	56.233181
3.050000	-26.999158	56.684674	-0.262916	157.537098	-0.262916	157.537098	-27.012936	57.267147
3.100000	-24.281829	55.544745	-0.276759	153.838050	-0.276759	153.838050	-24.289130	55.971978
3.150000	-22.097297	53.364070	-0.293926	150.108543	-0.293926	150.108543	-22.101671	53.696149
3.200000	-20.261742	50.642682	-0.314913	146.348490	-0.314913	146.348490	-20.264580	50.910789
3.250000	-18.673856	47.598928	-0.340220	142.558297	-0.340220	142.558297	-18.675801	47.821177
3.300000	-17.271653	44.341806	-0.370383	138.738568	-0.370383	138.738568	-17.273044	44.529692
3.350000	-16.014848	40.933189	-0.405957	134.890309	-0.405957	134.890309	-16.015875	41.094449
3.400000	-14.875878	37.411272	-0.447504	131.014957	-0.447504	131.014957	-14.876656	37.551359
3.450000	-13.835035	33.801259	-0.495603	127.114352	-0.495603	127.114352	-13.835637	33.924164
3.500000	-12.877903	30.121243	-0.550827	123.190865	-0.550827	123.190865	-12.878377	30.229972
3.550000	-11.993746	26.385303	-0.613680	119.247492	-0.613680	119.247492	-11.994125	26.482164
3.600000	-11.174158	22.604588	-0.684662	115.287618	-0.684662	115.287618	-11.174464	22.691399
3.650000	-10.412475	18.788555	-0.764261	111.315073	-0.764261	111.315073	-10.412725	18.866779
3.700000	-9.703448	14.945984	-0.852839	107.334236	-0.852839	107.334236	-9.703654	15.016805
3.750000	-9.042705	11.084841	-0.950725	103.349804	-0.950725	103.349804	-9.042875	11.149236
3.800000	-8.426597	7.212689	-1.058217	99.366845	-1.058217	99.366845	-8.426738	7.271479
3.850000	-7.852038	3.336936	-1.175437	95.390675	-1.175437	95.390675	-7.852155	3.390808
3.900000	-7.316317	-0.535336	-1.302458	91.426765	-1.302458	91.426765	-7.316413	-0.485796
3.950000	-6.817066	-4.397187	-1.439293	87.480779	-1.439293	87.480779	-6.817146	-4.351475
4.000000	-6.352130	-8.241930	-1.585812	83.558321	-1.585812	83.558321	-6.352195	-8.199610
4.050000	-5.919413	-12.063489	-1.741726	79.664532	-1.741726	79.664532	-5.919466	-12.024186
4.100000	-5.517190	-15.855513	-1.906819	75.805108	-1.906819	75.805108	-5.517231	-15.818893
4.150000	-5.143648	-19.612539	-2.080653	71.984873	-2.080653	71.984873	-5.143680	-19.578308
4.200000	-4.797072	-23.329564	-2.262739	68.208309	-2.262739	68.208309	-4.797095	-23.297462
4.250000	-4.475842	-27.002003	-2.452539	64.479568	-2.452539	64.479568	-4.475858	-26.971801
4.300000	-4.178404	-30.625805	-2.649462	60.802338	-2.649462	60.802338	-4.178413	-30.597295
4.350000	-3.903260	-34.197461	-2.852870	57.179813	-2.852870	57.179813	-3.903262	-34.170457
4.400000	-3.649037	-37.713707	-3.062098	53.614994	-3.062098	53.614994	-3.649033	-37.688039
4.450000	-3.414344	-41.172105	-3.276440	50.110074	-3.276440	50.110074	-3.414335	-41.147622
4.500000	-3.197944	-44.570277	-3.495174	46.667232	-3.495174	46.667232	-3.197930	-44.546837
4.550000	-2.998298	-47.908169	-3.717625	43.286288	-3.717625	43.286288	-2.998279	-47.885647
4.600000	-2.814297	-51.184427	-3.943104	39.968438	-3.943104	39.968438	-2.814274	-51.162706
4.650000	-2.644795	-54.398608	-4.170945	36.713960	-4.170945	36.713960	-2.644768	-54.377582
4.700000	-2.488711	-57.550661	-4.400504	33.522754	-4.400504	33.522754	-2.488680	-57.530231
4.750000	-2.345027	-60.640880	-4.631167	30.394379	-4.631167	30.394379	-2.344991	-60.620955
4.800000	-2.212788	-63.669864	-4.862350	27.328098	-4.862350	27.328098	-2.212748	-63.650360
4.850000	-2.091102	-66.638473	-5.093504	24.322916	-5.093504	24.322916	-2.091059	-66.619312
4.900000	-1.979140	-69.547791	-5.324114	21.377620	-5.324114	21.377620	-1.979094	-69.528899
4.950000	-1.876130	-72.399083	-5.553702	18.490817	-5.553702	18.490817	-1.876079	-72.380392
5.000000	-1.781357	-75.193764	-5.781826	15.660969	-5.781826	15.660969	-1.781302	-75.175211
5.050000	-1.694292	-77.932209	-6.007904	12.887583	-6.007904	12.887583	-1.694234	-77.913732
5.100000	-1.614174	-80.617279	-6.231732	10.167673	-6.231732	10.167673	-1.614111	-80.598822
5.150000	-1.540442	-83.250667	-6.452973	7.499435	-6.452973	7.499435	-1.540376	-83.232176
5.200000	-1.472583	-85.834107	-6.671324	4.881022	-6.671324	4.881022	-1.472512	-85.815533
5.250000	-1.410124	-88.369358	-6.886509	2.310569	-6.886509	2.310569	-1.410049	-88.350654
5.300000	-1.352631	-90.858191	-7.098282	-0.213795	-7.098282	-0.213795	-1.352552	-90.839310
5.350000	-1.299709	-93.302368	-7.306421	-2.693932	-7.306421	-2.693932	-1.299626	-93.283269
5.400000	-1.250994	-95.703641	-7.510728	-5.131687	-7.510728	-5.131687	-1.250907	-95.684283
5.450000	-1.206154	-98.063737	-7.711027	-7.528876	-7.711027	-7.528876	-1.206062	-98.044081
5.500000	-1.164885	-100.384353	-7.907163	-9.887280	-7.907163	-9.887280	-1.164788	-100.364362
5.550000	-1.126909	-102.667152	-8.098997	-12.208639	-8.098997	-12.208639	-1.126808	-102.646789
5.600000	-1.091973	-104.913755	-8.286408	-14.494650	-8.286408	-14.494650	-1.091867	-104.892986
5.650000	-1.060194	-107.121080	-8.468110	-16.742436	-8.468110	-16.742436	-1.060084	-107.099867
5.700000	-1.030660	-109.299868	-8.646301	-18.962543	-8.646301	-18.962543	-1.030545	-109.278183
5.750000	-1.003527	-111.447092	-8.819796	-21.152122	-8.819796	-21.152122	-1.003407	-111.424905
5.800000	-0.978617	-113.564196	-8.988526	-23.312664	-8.988526	-23.312664	-0.978493	-113.541475
5.850000	-0.955770	-115.652574	-9.152432	-25.445612	-9.152432	-25.445612	-0.955641	-115.629290
5.900000	-0.934838	-117.713577	-9.311462	-27.552356	-9.311462	-27.552356	-0.934705	-117.689701
5.950000	-0.915686	-119.748509	-9.465576	-29.634233	-9.465576	-29.634233	-0.915548	-119.724013
6.000000	-0.898191	-121.758632	-9.614735	-31.692532	-9.614735	-31.692532	-0.898048	-121.733487
6.050000	-0.882239	-123.745163	-9.758912	-33.728495	-9.758912	-33.728495	-0.882092	-123.719343
6.100000	-0.867728	-125.709278	-9.898080	-35.743315	-9.898080	-35.743315	-0.867577	-125.682755
6.150000	-0.854564	-127.652114	-10.032219	-37.738140	-10.032219	-37.738140	-0.854408	-127.624862
6.200000	-0.842659	-129.574769	-10.161313	-39.714073	-10.161313	-39.714073	-0.842499	-129.546762
6.250000	-0.831935	-131.478304	-10.285350	-41.672179	-10.285350	-41.672179	-0.831771	-131.449516
6.300000	-0.822365	-133.363006	-10.404030	-43.612795	-10.404030	-43.612795	-0.822196	-133.333410
6.350000	-0.813832	-135.230696	-10.517646	-45.537677	-10.517646	-45.537677	-0.813659	-135.200266
6.400000	-0.806277	-137.082332	-10.626190	-47.447767	-10.626190	-47.447767	-0.806100	-137.051042
6.450000	-0.799645	-138.918842	-10.729657	-49.343975	-10.729657	-49.343975	-0.799463	-138.886666
6.500000	-0.793886	-140.741126	-10.828043	-51.227179	-10.828043	-51.227179	-0.793700	-140.708040
6.550000	-0.788955	-142.550062	-10.921342	-53.098228	-10.921342	-53.098228	-0.788765	-142.516039
6.600000	-0.784810	-144.346499	-11.009553	-54.957939	-11.009553	-54.957939	-0.784617	-144.311513
6.650000	-0.781414	-146.131265	-11.092672	-56.807106	-11.092672	-56.807106	-0.781217	-146.095292
6.700000	-0.778733	-147.905170	-11.170694	-58.646498	-11.170694	-58.646498	-0.778532	-147.868183
6.750000	-0.776735	-149.669000	-11.243616	-60.476860	-11.243616	-60.476860	-0.776530	-149.630973
6.800000	-0.775393	-151.423527	-11.311434	-62.298916	-11.311434	-62.298916	-0.775185	-151.384434
6.850000	-0.774683	-153.169504	-11.374141	-64.113372	-11.374141	-64.113372	-0.774471	-153.129319
6.900000	-0.774581	-154.907671	-11.431732	-65.920915	-11.431732	-65.920915	-0.774365	-154.866368
6.950000	-0.775069	-156.638755	-11.484198	-67.722217	-11.484198	-67.722217	-0.774849	-156.596305
7.000000	-0.776129	-158.363469	-11.531531	-69.517935	-11.531531	-69.517935	-0.775905	-158.319847
7.050000	-0.777746	-160.082517	-11.573720	-71.308716	-11.573720	-71.308716	-0.777519	-160.037695
7.100000	-0.779908	-161.796596	-11.610752	-73.095191	-11.610752	-73.095191	-0.779677	-161.750546
7.150000	-0.782605	-163.506391	-11.642614	-74.877989	-11.642614	-74.877989	-0.782371	-163.459086
7.200000	-0.785829	-165.212585	-11.669289	-76.657725	-11.669289	-76.657725	-0.785591	-165.163996
7.250000	-0.789574	-166.915855	-11.690759	-78.435012	-11.690759	-78.435012	-0.789332	-166.865954
7.300000	-0.793836	-168.616875	-11.707003	-80.210460	-11.707003	-80.210460	-0.793590	-168.565632
7.350000	-0.798614	-170.316317	-11.717999	-81.984674	-11.717999	-81.984674	-0.798364	-170.263702
7.400000	-0.803909	-172.014853	-11.723721	-83.758262	-11.723721	-83.758262	-0.803654	-171.960837
7.450000	-0.809722	-173.713156	-11.724141	-85.531830	-11.724141	-85.531830	-0.809464	-173.657709
7.500000	-0.816060	-175.411905	-11.719227	-87.305992	-11.719227	-87.305992	-0.815798	-175.354995
7.550000	-0.822954	-177.111861	-11.708710	-89.081448	-11.708710	-89.081448	-0.822687	-177.053456
7.600000	-0.830391	-178.813696	-11.692783	-90.858800	-11.692783	-90.858800	-0.830119	-178.753763
7.650000	-0.838383	179.481893	-11.671404	-92.638686	-11.671404	-92.638686	-0.838108	179.543386
7.700000	-0.846949	177.774197	-11.644528	-94.421759	-11.644528	-94.421759	-0.846668	177.837283
7.750000	-0.856104	176.062493	-11.612105	-96.208686	-11.612105	-96.208686	-0.855819	176.127206
7.800000	-0.865873	174.346044	-11.574083	-98.000154	-11.574083	-98.000154	-0.865583	174.412418
7.850000	-0.876281	172.624094	-11.530406	-99.796874	-11.530406	-99.796874	-0.875986	172.692166
7.900000	-0.887355	170.895870	-11.481011	-101.599579	-11.481011	-101.599579	-0.887055	170.965674
7.950000	-0.899131	169.160571	-11.425834	-103.409032	-11.425834	-103.409032	-0.898826	169.232145
8.000000	-0.911646	167.417374	-11.364805	-105.226030	-11.364805	-105.226030	-0.911336	167.490756
8.050000	-0.924943	165.665424	-11.297850	-107.051407	-11.297850	-107.051407	-0.924627	165.740653
8.100000	-0.939070	163.903833	-11.224887	-108.886037	-11.224887	-108.886037	-0.938748	163.980949
8.150000	-0.954082	162.131678	-11.145834	-110.730843	-11.145834	-110.730843	-0.953754	162.210721
8.200000	-0.970039	160.347991	-11.060599	-112.586799	-11.060599	-112.586799	-0.969706	160.429004
8.250000	-0.987012	158.551759	-10.969087	-114.454939	-10.969087	-114.454939	-0.986673	158.634786
8.300000	-1.005078	156.741919	-10.871195	-116.336362	-10.871195	-116.336362	-1.004733	156.827004
8.350000	-1.024250	154.918287	-10.767283	-118.231310	-10.767283	-118.231310	-1.023899	155.005475
8.400000	-1.044722	153.078458	-10.656602	-120.142233	-10.656602	-120.142233	-1.044365	153.167798
8.450000	-1.066694	151.220010	-10.538517	-122.071645	-10.538517	-122.071645	-1.066331	151.311557
8.500000	-1.090106	149.343997	-10.414031	-124.018611	-10.414031	-124.018611	-1.089737	149.437801
8.550000	-1.115215	147.447509	-10.282335	-125.986182	-10.282335	-125.986182	-1.114840	147.543626
8.600000	-1.142151	145.529411	-10.143466	-127.975655	-10.143466	-127.975655	-1.141770	145.627899
8.650000	-1.171024	143.588931	-9.997636	-129.987982	-9.997636	-129.987982	-1.170637	143.689848
8.700000	-1.202237	141.621959	-9.843741	-132.027568	-9.843741	-132.027568	-1.201844	141.725375
8.750000	-1.235679	139.630640	-9.683210	-134.092408	-9.683210	-134.092408	-1.235280	139.736615
8.800000	-1.272149	137.606907	-9.513585	-136.191155	-9.513585	-136.191155	-1.271745	137.715523
8.850000	-1.311389	135.554838	-9.337049	-138.319805	-9.337049	-138.319805	-1.310979	135.666165
8.900000	-1.354217	133.467044	-9.151626	-140.486494	-9.151626	-140.486494	-1.353801	133.581170
8.950000	-1.400721	131.344237	-8.958312	-142.690806	-8.958312	-142.690806	-1.400299	131.461247
9.000000	-1.451519	129.182095	-8.756423	-144.937795	-8.756423	-144.937795	-1.451092	129.302085
9.050000	-1.507248	126.976682	-8.545527	-147.232197	-8.545527	-147.232197	-1.506816	127.099760
9.100000	-1.568173	124.728006	-8.326513	-149.574498	-8.326513	-149.574498	-1.567735	124.854278
9.150000	-1.635791	122.425814	-8.097244	-151.976699	-8.097244	-151.976699	-1.635346	122.555416
9.200000	-1.709910	120.074990	-7.860193	-154.433960	-7.860193	-154.433960	-1.709458	120.208046
9.250000	-1.792944	117.660181	-7.612157	-156.964568	-7.612157	-156.964568	-1.792484	117.796857
9.300000	-1.884764	115.186919	-7.355884	-159.563069	-7.355884	-159.563069	-1.884294	115.327372
9.350000	-1.987888	112.642354	-7.089325	-162.245584	-7.089325	-162.245584	-1.987406	112.786780
9.400000	-2.103474	110.024852	-6.813520	-165.015379	-6.813520	-165.015379	-2.102977	110.173459
9.450000	-2.233425	107.329431	-6.528775	-167.880049	-6.528775	-167.880049	-2.232909	107.482451
9.500000	-2.381180	104.544268	-6.234083	-170.856164	-6.234083	-170.856164	-2.380639	104.701981
9.550000	-2.549305	101.665876	-5.930524	-173.950866	-5.930524	-173.950866	-2.548732	101.828592
9.600000	-2.741566	98.687455	-5.618605	-177.176360	-5.618605	-177.176360	-2.740950	98.855531
9.650000	-2.962586	95.602421	-5.299060	179.453969	-5.299060	179.453969	-2.961915	95.776269
9.700000	-3.218365	92.403885	-4.972758	175.924068	-4.972758	175.924068	-3.217621	92.583992
9.750000	-3.516819	89.085344	-4.640838	172.214630	-4.640838	172.214630	-3.515978	89.272300
9.800000	-3.866243	85.648376	-4.305664	168.313227	-4.305664	168.313227	-3.865274	85.842870
9.850000	-4.278059	82.096543	-3.969677	164.202844	-3.969677	164.202844	-4.276922	82.299416
9.900000	-4.766875	78.441573	-3.635972	159.866645	-3.635972	159.866645	-4.765514	78.653866
9.950000	-5.351609	74.708607	-3.308397	155.288900	-3.308397	155.288900	-5.349950	74.931650
10.000000	-6.057164	70.945000	-2.991636	150.456281	-2.991636	150.456281	-6.055099	71.180539
