! freq	dB(S11)	phase(S11)	dB(S12)	phase(S12)	
!     	dB(S21)	phase(S21)	dB(S22)	phase(S22)	
!S-par simulation data
#  GHz  S  DB  R 50
0.000000	-83.236363	0.000000	-0.000598	0.000000	-0.000598	0.000000	-83.236363	0.000000
0.050000	-34.464377	-93.932000	-0.006051	-4.035019	-0.006051	-4.035019	-34.464353	-93.932434
0.100000	-28.481286	-98.157262	-0.018080	-8.031563	-0.018080	-8.031563	-28.481271	-98.158087
0.150000	-25.017971	-102.277565	-0.032098	-11.997772	-0.032098	-11.997772	-25.017964	-102.278730
0.200000	-22.598652	-106.337586	-0.047384	-15.946308	-0.047384	-15.946308	-22.598648	-106.339061
0.250000	-20.757885	-110.350184	-0.064247	-19.882251	-0.064247	-19.882251	-20.757876	-110.351972
0.300000	-19.288952	-114.322791	-0.082896	-23.805437	-0.082896	-23.805437	-19.288931	-114.324918
0.350000	-18.079945	-118.262579	-0.103233	-27.714828	-0.103233	-27.714828	-18.079911	-118.265085
0.400000	-17.065503	-122.174018	-0.125049	-31.608870	-0.125049	-31.608870	-17.065454	-122.176940
0.450000	-16.205654	-126.059495	-0.148052	-35.485570	-0.148052	-35.485570	-16.205592	-126.062872
0.500000	-15.469019	-129.922799	-0.171789	-39.344999	-0.171789	-39.344999	-15.468945	-129.926661
0.550000	-14.835297	-133.765757	-0.195846	-43.186852	-0.195846	-43.186852	-14.835216	-133.770128
0.600000	-14.291863	-137.589156	-0.219768	-47.010444	-0.219768	-47.010444	-14.291776	-137.594058
0.650000	-13.825731	-141.395456	-0.243113	-50.817025	-0.243113	-50.817025	-13.825643	-141.400908
0.700000	-13.427883	-145.186860	-0.265474	-54.607765	-0.265474	-54.607765	-13.427798	-145.192881
0.750000	-13.093143	-148.965729	-0.286409	-58.383609	-0.286409	-58.383609	-13.093070	-148.972345
0.800000	-12.816167	-152.736179	-0.305541	-62.146424	-0.305541	-62.146424	-12.816116	-152.743442
0.850000	-12.592117	-156.504200	-0.322561	-65.898484	-0.322561	-65.898484	-12.592106	-156.512248
0.900000	-12.416810	-160.277052	-0.337194	-69.642165	-0.337194	-69.642165	-12.416849	-160.286240
0.950000	-12.285552	-164.055677	-0.349199	-73.380006	-0.349199	-73.380006	-12.285575	-164.066595
1.000000	-12.194364	-167.813842	-0.358398	-77.114778	-0.358398	-77.114778	-12.194182	-167.826245
1.050000	-12.147008	-171.515636	-0.364671	-80.849392	-0.364671	-80.849392	-12.146618	-171.527866
1.100000	-12.150593	-175.183187	-0.367956	-84.586853	-0.367956	-84.586853	-12.150223	-175.194957
1.150000	-12.205195	-178.857828	-0.368253	-88.330214	-0.368253	-88.330214	-12.204928	-178.870036
1.200000	-12.308950	177.448562	-0.365620	-92.082532	-0.365620	-92.082532	-12.308761	177.435353
1.250000	-12.462167	173.737295	-0.360181	-95.846813	-0.360181	-95.846813	-12.462023	173.722843
1.300000	-12.668049	170.010073	-0.352065	-99.626361	-0.352065	-99.626361	-12.667930	169.994230
1.350000	-12.929041	166.268096	-0.341578	-103.423670	-0.341578	-103.423670	-12.928936	166.250719
1.400000	-13.249003	162.511836	-0.329051	-107.240933	-0.329051	-107.240933	-13.248905	162.492756
1.450000	-13.635420	158.741152	-0.314779	-111.081015	-0.314779	-111.081015	-13.635325	158.720144
1.500000	-14.095657	154.956960	-0.299188	-114.945709	-0.299188	-114.945709	-14.095561	154.933738
1.550000	-14.639992	151.160996	-0.282720	-118.836678	-0.282720	-118.836678	-14.639894	151.135182
1.600000	-15.282455	147.356524	-0.265857	-122.755418	-0.265857	-122.755418	-15.282353	147.327611
1.650000	-16.040985	143.549427	-0.249113	-126.702608	-0.249113	-126.702608	-16.040878	143.516724
1.700000	-16.940630	139.749434	-0.233015	-130.678509	-0.233015	-130.678509	-16.940518	139.711969
1.750000	-18.017571	135.972914	-0.218094	-134.682948	-0.218094	-134.682948	-18.017456	135.929259
1.800000	-19.326387	132.248619	-0.204873	-138.715232	-0.204873	-138.715232	-19.326277	132.196556
1.850000	-20.955120	128.631017	-0.193860	-142.774139	-0.193860	-142.774139	-20.955038	128.566828
1.900000	-23.060366	125.239185	-0.185543	-146.858050	-0.185543	-146.858050	-23.060379	125.155854
1.950000	-25.962044	122.390034	-0.180356	-150.964683	-0.180356	-150.964683	-25.962403	122.271742
2.000000	-30.501037	121.368370	-0.178699	-155.091433	-0.178699	-155.091433	-30.503193	121.163990
2.050000	-40.411730	138.243731	-0.180785	-159.234762	-0.180785	-159.234762	-40.451517	137.578704
2.100000	-37.440855	-94.493832	-0.186846	-163.391428	-0.186846	-163.391428	-37.467849	-94.015839
2.150000	-29.257876	-84.789655	-0.196992	-167.557799	-0.196992	-167.557799	-29.262533	-84.611249
2.200000	-25.060302	-86.379059	-0.211230	-171.730131	-0.211230	-171.730131	-25.062505	-86.270668
2.250000	-22.254382	-89.418897	-0.229464	-175.904676	-0.229464	-175.904676	-22.255785	-89.341377
2.300000	-20.163010	-92.940922	-0.251492	179.922202	-0.251492	179.922202	-20.164040	-92.880906
2.350000	-18.512197	-96.678262	-0.277008	175.753902	-0.277008	175.753902	-18.513017	-96.629592
2.400000	-17.163324	-100.525133	-0.305579	171.593361	-0.305579	171.593361	-17.164014	-100.484490
2.450000	-16.038397	-104.432326	-0.336779	167.443466	-0.336779	167.443466	-16.038999	-104.397669
2.500000	-15.086914	-108.370785	-0.369981	163.306118	-0.369981	163.306118	-15.087454	-108.340825
2.550000	-14.276272	-112.324140	-0.404546	159.182876	-0.404546	159.182876	-14.276769	-112.297992
2.600000	-13.582798	-116.281999	-0.439752	155.074264	-0.439752	155.074264	-13.583262	-116.259047
2.650000	-12.989841	-120.238100	-0.474860	150.980175	-0.474860	150.980175	-12.990281	-120.217899
2.700000	-12.485175	-124.188792	-0.509109	146.899684	-0.509109	146.899684	-12.485597	-124.171012
2.750000	-12.059751	-128.132358	-0.541732	142.831021	-0.541732	142.831021	-12.060161	-128.116760
2.800000	-11.706917	-132.068613	-0.571970	138.771547	-0.571970	138.771547	-11.707320	-132.055018
2.850000	-11.422403	-135.998588	-0.599059	134.717748	-0.599059	134.717748	-11.422803	-135.986871
2.900000	-11.202807	-139.924484	-0.622318	130.665094	-0.622318	130.665094	-11.203208	-139.914564
2.950000	-11.047493	-143.849400	-0.641030	126.608013	-0.641030	126.608013	-11.047898	-143.841235
3.000000	-10.953594	-147.776985	-0.654856	122.540640	-0.654856	122.540640	-10.954007	-147.770569
3.050000	-10.923770	-151.711438	-0.663228	118.455742	-0.663228	118.455742	-10.924194	-151.706803
3.100000	-10.960839	-155.657244	-0.665801	114.345302	-0.665801	114.345302	-10.961280	-155.654461
3.150000	-11.070124	-159.618974	-0.662321	110.200060	-0.662321	110.200060	-11.070589	-159.618165
3.200000	-11.258811	-163.600504	-0.652752	106.010000	-0.652752	106.010000	-11.259306	-163.601848
3.250000	-11.536432	-167.603991	-0.637308	101.764818	-0.637308	101.764818	-11.536968	-167.607746
3.300000	-11.917219	-171.628883	-0.616385	97.453192	-0.616385	97.453192	-11.917809	-171.635415
3.350000	-12.420749	-175.669407	-0.590665	93.063610	-0.590665	93.063610	-12.421412	-175.679237
3.400000	-13.078016	-179.710112	-0.561065	88.581991	-0.561065	88.581991	-13.078783	-179.724018
3.450000	-13.930568	176.283426	-0.529003	83.996845	-0.529003	83.996845	-13.931486	176.264272
3.500000	-15.045108	172.383199	-0.496242	79.295825	-0.496242	79.295825	-15.046266	172.356903
3.550000	-16.529666	168.738127	-0.464941	74.469282	-0.464941	74.469282	-16.531235	168.701476
3.600000	-18.596139	165.741810	-0.437904	69.502506	-0.437904	69.502506	-18.598535	165.688286
3.650000	-21.686704	164.556321	-0.418330	64.389672	-0.418330	64.389672	-21.691261	164.470647
3.700000	-27.044612	170.783001	-0.409931	59.125793	-0.409931	59.125793	-27.058938	170.618724
3.750000	-34.746920	-119.064940	-0.416856	53.710091	-0.416856	53.710091	-34.821966	-118.932197
3.800000	-25.429151	-63.939599	-0.443753	48.146115	-0.443753	48.146115	-25.436625	-63.753020
3.850000	-19.777522	-59.908184	-0.495122	42.445961	-0.495122	42.445961	-19.779161	-59.799030
3.900000	-16.169413	-62.170326	-0.575463	36.627607	-0.575463	36.627607	-16.169944	-62.092184
3.950000	-13.530611	-66.249136	-0.688865	30.716173	-0.688865	30.716173	-13.530796	-66.187310
4.000000	-11.465446	-71.105703	-0.838911	24.743254	-0.838911	24.743254	-11.465495	-71.053906
4.050000	-9.788800	-76.348042	-1.027757	18.746585	-1.027757	18.746585	-9.788789	-76.303063
4.100000	-8.398539	-81.783153	-1.256410	12.766664	-1.256410	12.766664	-8.398501	-81.743123
4.150000	-7.231674	-87.292642	-1.524556	6.844719	-1.524556	6.844719	-7.231625	-87.256379
4.200000	-6.245921	-92.793360	-1.830651	1.020861	-1.830651	1.020861	-6.245868	-92.760065
4.250000	-5.410515	-98.222637	-2.171825	-4.668514	-2.171825	-4.668514	-5.410462	-98.191745
4.300000	-4.700794	-103.535045	-2.544020	-10.195361	-2.544020	-10.195361	-4.700743	-103.506147
4.350000	-4.097409	-108.696765	-2.942910	-15.536878	-2.942910	-15.536878	-4.097362	-108.669551
4.400000	-3.584168	-113.684537	-3.363828	-20.677631	-3.363828	-20.677631	-3.584124	-113.658766
4.450000	-3.147680	-118.482659	-3.802020	-25.607468	-3.802020	-25.607468	-3.147640	-118.458139
4.500000	-2.776077	-123.084612	-4.252966	-30.324170	-4.252966	-30.324170	-2.776041	-123.061190
4.550000	-2.459121	-127.490513	-4.712637	-34.831152	-4.712637	-34.831152	-2.459090	-127.468063
4.600000	-2.188407	-131.703462	-5.177408	-39.133971	-5.177408	-39.133971	-2.188379	-131.681881
4.650000	-1.956801	-135.729677	-5.644118	-43.240793	-5.644118	-43.240793	-1.956777	-135.708878
4.700000	-1.758476	-139.576039	-6.109826	-47.160014	-6.109826	-47.160014	-1.758455	-139.555945
4.750000	-1.588617	-143.249705	-6.571732	-50.900009	-6.571732	-50.900009	-1.588599	-143.230253
4.800000	-1.442263	-146.765644	-7.028695	-54.476984	-7.028695	-54.476984	-1.442248	-146.746779
4.850000	-1.315842	-150.134413	-7.479254	-57.902369	-7.479254	-57.902369	-1.315829	-150.116088
4.900000	-1.206354	-153.366441	-7.922245	-61.187329	-7.922245	-61.187329	-1.206344	-153.348613
4.950000	-1.111280	-156.471810	-8.356758	-64.342572	-8.356758	-64.342572	-1.111272	-156.454442
5.000000	-1.028504	-159.460119	-8.782099	-67.378235	-8.782099	-67.378235	-1.028499	-159.443179
5.050000	-0.956678	-162.335308	-9.196240	-70.298634	-9.196240	-70.298634	-0.956674	-162.318766
5.100000	-0.893762	-165.111663	-9.600383	-73.118570	-9.600383	-73.118570	-0.893760	-165.095492
5.150000	-0.838515	-167.796929	-9.994291	-75.846129	-9.994291	-75.846129	-0.838515	-167.781105
5.200000	-0.789887	-170.398259	-10.377820	-78.488760	-10.377820	-78.488760	-0.789889	-170.382761
5.250000	-0.746988	-172.922238	-10.750902	-81.053306	-10.750902	-81.053306	-0.746992	-172.907047
5.300000	-0.709062	-175.374914	-11.113526	-83.546041	-11.113526	-83.546041	-0.709067	-175.360012
5.350000	-0.675466	-177.761840	-11.465732	-85.972710	-11.465732	-85.972710	-0.675472	-177.747210
5.400000	-0.645649	179.911896	-11.807593	-88.338574	-11.807593	-88.338574	-0.645656	179.926268
5.450000	-0.619141	177.641628	-12.139215	-90.648443	-12.139215	-90.648443	-0.619150	177.655757
5.500000	-0.595538	175.423080	-12.460724	-92.906718	-12.460724	-92.906718	-0.595548	175.436978
5.550000	-0.574493	173.252328	-12.772264	-95.117430	-12.772264	-95.117430	-0.574504	173.266007
5.600000	-0.555706	171.125771	-13.073991	-97.284266	-13.073991	-97.284266	-0.555719	171.139243
5.650000	-0.538978	169.041403	-13.365417	-99.409321	-13.365417	-99.409321	-0.538992	169.054679
5.700000	-0.524066	166.995913	-13.646784	-101.495970	-13.646784	-101.495970	-0.524080	167.009002
5.750000	-0.510711	164.985141	-13.918941	-103.548399	-13.918941	-103.548399	-0.510727	164.998054
5.800000	-0.498748	163.006543	-14.182058	-105.569184	-14.182058	-105.569184	-0.498765	163.019287
5.850000	-0.488031	161.057766	-14.436307	-107.560695	-14.436307	-107.560695	-0.488049	161.070350
5.900000	-0.478432	159.136637	-14.681860	-109.525115	-14.681860	-109.525115	-0.478450	159.149068
5.950000	-0.469839	157.241142	-14.918884	-111.464456	-14.918884	-111.464456	-0.469858	157.253429
6.000000	-0.462153	155.369414	-15.147546	-113.380576	-15.147546	-113.380576	-0.462173	155.381564
6.050000	-0.455287	153.519719	-15.368008	-115.275192	-15.368008	-115.275192	-0.455308	153.531739
6.100000	-0.449164	151.690445	-15.580431	-117.149892	-15.580431	-117.149892	-0.449186	151.702340
6.150000	-0.443716	149.880087	-15.784969	-119.006147	-15.784969	-119.006147	-0.443739	149.891865
6.200000	-0.438882	148.087246	-15.981773	-120.845321	-15.981773	-120.845321	-0.438906	148.098913
6.250000	-0.434609	146.310613	-16.170991	-122.668682	-16.170991	-122.668682	-0.434633	146.322174
6.300000	-0.430880	144.549917	-16.352010	-124.476474	-16.352010	-124.476474	-0.430905	144.561378
6.350000	-0.427616	142.802918	-16.525775	-126.270858	-16.525775	-126.270858	-0.427642	142.814286
6.400000	-0.424779	141.068552	-16.692417	-128.052844	-16.692417	-128.052844	-0.424806	141.079831
6.450000	-0.422336	139.345819	-16.852061	-129.823375	-16.852061	-129.823375	-0.422363	139.357016
6.500000	-0.420257	137.633778	-17.004827	-131.583333	-17.004827	-131.583333	-0.420284	137.644897
6.550000	-0.418514	135.931543	-17.150832	-133.333545	-17.150832	-133.333545	-0.418542	135.942589
6.600000	-0.417083	134.238277	-17.290186	-135.074784	-17.290186	-135.074784	-0.417112	134.249255
6.650000	-0.415943	132.553188	-17.422998	-136.807779	-17.422998	-136.807779	-0.415972	132.564104
6.700000	-0.415170	130.878040	-17.546286	-138.530623	-17.546286	-138.530623	-0.415199	130.888900
6.750000	-0.414527	129.206372	-17.667160	-140.249899	-17.667160	-140.249899	-0.414556	129.217179
6.800000	-0.414166	127.541743	-17.780245	-141.961793	-17.780245	-141.961793	-0.414196	127.552502
6.850000	-0.414007	125.882143	-17.887957	-143.668415	-17.887957	-143.668415	-0.414038	125.892858
6.900000	-0.414062	124.227240	-17.989423	-145.369915	-17.989423	-145.369915	-0.414093	124.237917
6.950000	-0.414331	122.577035	-18.084406	-147.066294	-18.084406	-147.066294	-0.414362	122.587678
7.000000	-0.414760	120.929739	-18.174496	-148.759310	-18.174496	-148.759310	-0.414791	120.940353
7.050000	-0.415413	119.286517	-18.257127	-150.447616	-18.257127	-150.447616	-0.415444	119.297107
7.100000	-0.416154	117.644579	-18.337145	-152.134319	-18.337145	-152.134319	-0.416185	117.655147
7.150000	-0.417121	116.005759	-18.409122	-153.817061	-18.409122	-153.817061	-0.417152	116.016312
7.200000	-0.418246	114.368619	-18.475421	-155.497434	-18.475421	-155.497434	-0.418277	114.379161
7.250000	-0.419524	112.732716	-18.536094	-157.175839	-18.536094	-157.175839	-0.419555	112.743252
7.300000	-0.420951	111.097623	-18.591191	-158.852665	-18.591191	-158.852665	-0.420982	111.108159
7.350000	-0.422522	109.462933	-18.640755	-160.528284	-18.640755	-160.528284	-0.422553	109.473472
7.400000	-0.424235	107.828249	-18.684824	-162.203060	-18.684824	-162.203060	-0.424265	107.838797
7.450000	-0.426086	106.193192	-18.723432	-163.877345	-18.723432	-163.877345	-0.426115	106.203752
7.500000	-0.428074	104.557393	-18.756610	-165.551483	-18.756610	-165.551483	-0.428103	104.567971
7.550000	-0.430203	102.920432	-18.784144	-167.225832	-18.784144	-167.225832	-0.430231	102.931033
7.600000	-0.432467	101.281996	-18.806296	-168.900726	-18.806296	-168.900726	-0.432494	101.292626
7.650000	-0.434865	99.641752	-18.823080	-170.576487	-18.823080	-170.576487	-0.434891	99.652415
7.700000	-0.437399	97.999373	-18.834504	-172.253432	-18.834504	-172.253432	-0.437424	98.010075
7.750000	-0.440068	96.354540	-18.840572	-173.931873	-18.840572	-173.931873	-0.440092	96.365285
7.800000	-0.442876	94.706942	-18.841285	-175.612121	-18.841285	-175.612121	-0.442899	94.717736
7.850000	-0.445824	93.056272	-18.836637	-177.294483	-18.836637	-177.294483	-0.445845	93.067120
7.900000	-0.448916	91.402228	-18.826617	-178.979267	-18.826617	-178.979267	-0.448935	91.413135
7.950000	-0.452154	89.744513	-18.811210	179.333220	-18.811210	179.333220	-0.452172	89.755485
8.000000	-0.455544	88.082831	-18.790396	177.642670	-18.790396	177.642670	-0.455560	88.093874
8.050000	-0.459090	86.416891	-18.764150	175.948772	-18.764150	175.948772	-0.459104	86.428010
8.100000	-0.462798	84.746398	-18.732441	174.251213	-18.732441	174.251213	-0.462810	84.757599
8.150000	-0.466675	83.071061	-18.695234	172.549674	-18.695234	172.549674	-0.466685	83.082350
8.200000	-0.470728	81.390584	-18.652488	170.843830	-18.652488	170.843830	-0.470735	81.401969
8.250000	-0.474965	79.704673	-18.604156	169.133350	-18.604156	169.133350	-0.474969	79.716157
8.300000	-0.479396	78.013024	-18.550187	167.417892	-18.550187	167.417892	-0.479397	78.024616
8.350000	-0.484043	76.314956	-18.490159	165.696762	-18.490159	165.696762	-0.484042	76.326661
8.400000	-0.488864	74.611782	-18.425574	163.971072	-18.425574	163.971072	-0.488859	74.623607
8.450000	-0.493984	72.899803	-18.353147	162.237359	-18.353147	162.237359	-0.493976	72.911757
8.500000	-0.499316	71.181768	-18.275741	160.498019	-18.275741	160.498019	-0.499304	71.193856
8.550000	-0.504865	69.457526	-18.193386	158.752868	-18.193386	158.752868	-0.504850	69.469755
8.600000	-0.510729	67.724407	-18.103901	156.999282	-18.103901	156.999282	-0.510710	67.736786
8.650000	-0.516917	65.982441	-18.007596	155.237110	-18.007596	155.237110	-0.516894	65.994979
8.700000	-0.523376	64.233222	-17.906100	153.467802	-17.906100	153.467802	-0.523349	64.245925
8.750000	-0.530117	62.476579	-17.799466	151.691134	-17.799466	151.691134	-0.530086	62.489454
8.800000	-0.537364	60.706951	-17.683239	149.901313	-17.683239	149.901313	-0.537328	60.720012
8.850000	-0.544957	58.928836	-17.561512	148.102700	-17.561512	148.102700	-0.544916	58.942089
8.900000	-0.552911	57.142013	-17.434342	146.294986	-17.434342	146.294986	-0.552865	57.155466
8.950000	-0.561355	55.343616	-17.299654	144.475003	-17.299654	144.475003	-0.561304	55.357281
9.000000	-0.570386	53.531913	-17.156371	142.640571	-17.156371	142.640571	-0.570330	53.545801
9.050000	-0.579890	51.709917	-17.007264	140.794751	-17.007264	140.794751	-0.579828	51.724038
9.100000	-0.589887	49.877353	-16.852430	138.937136	-16.852430	138.937136	-0.589819	49.891715
9.150000	-0.600728	48.027307	-16.686808	137.059543	-16.686808	137.059543	-0.600655	48.041928
9.200000	-0.612249	46.163926	-16.514085	135.166290	-16.514085	135.166290	-0.612169	46.178816
9.250000	-0.624434	44.287854	-16.335172	133.257933	-16.335172	133.257933	-0.624348	44.303025
9.300000	-0.637458	42.396124	-16.148260	131.330663	-16.148260	131.330663	-0.637364	42.411589
9.350000	-0.651655	40.483444	-15.949926	129.377333	-15.949926	129.377333	-0.651554	40.499223
9.400000	-0.666764	38.555295	-15.744837	127.404264	-15.744837	127.404264	-0.666656	38.571400
9.450000	-0.682835	36.611169	-15.533162	125.410578	-15.533162	125.410578	-0.682719	36.627616
9.500000	-0.700462	34.642047	-15.309100	123.383802	-15.309100	123.383802	-0.700338	34.658857
9.550000	-0.719558	32.650627	-15.075374	121.326529	-15.075374	121.326529	-0.719425	32.667819
9.600000	-0.740018	30.639294	-14.834404	119.241484	-14.834404	119.241484	-0.739876	30.656884
9.650000	-0.762068	28.605285	-14.585074	117.124358	-14.585074	117.124358	-0.761916	28.623294
9.700000	-0.786721	26.535763	-14.319882	114.955205	-14.319882	114.955205	-0.786560	26.554222
9.750000	-0.813354	24.440976	-14.046688	112.747795	-14.046688	112.747795	-0.813182	24.459907
9.800000	-0.842102	22.319910	-13.765802	110.500032	-13.765802	110.500032	-0.841917	22.339336
9.850000	-0.874063	20.160147	-13.470772	108.191283	-13.470772	108.191283	-0.873867	20.180100
9.900000	-0.909593	17.960043	-13.162207	105.816489	-13.162207	105.816489	-0.909382	17.980559
9.950000	-0.948312	15.725813	-12.845241	103.384345	-12.845241	103.384345	-0.948087	15.746921
10.000000	-0.990447	13.456069	-12.520377	100.891734	-12.520377	100.891734	-0.990206	13.477799
