! freq	dB(S11)	phase(S11)	dB(S12)	phase(S12)	
!     	dB(S21)	phase(S21)	dB(S22)	phase(S22)	
!S-par simulation data
#  GHz  S  DB  R 50
0.000000	-80.791013	0.000000	-0.000793	0.000000	-0.000793	0.000000	-80.791013	0.000000
0.050000	-44.146031	-91.433542	-0.006680	-3.836754	-0.006680	-3.836754	-44.184878	-92.618276
0.100000	-38.293542	-95.477084	-0.014123	-7.623259	-0.014123	-7.623259	-38.308043	-97.170637
0.150000	-34.878777	-99.427652	-0.019810	-11.396732	-0.019810	-11.396732	-34.908432	-101.899275
0.200000	-32.472725	-103.220632	-0.025083	-15.168032	-0.025083	-15.168032	-32.502602	-106.628017
0.250000	-30.629038	-106.896650	-0.030530	-18.937695	-0.030530	-18.937695	-30.647885	-111.250855
0.300000	-29.150166	-110.480593	-0.036258	-22.705096	-0.036258	-22.705096	-29.155175	-115.768037
0.350000	-27.928804	-113.992722	-0.042217	-26.469950	-0.042217	-26.469950	-27.921763	-120.209528
0.400000	-26.900533	-117.446939	-0.048307	-30.232319	-0.048307	-30.232319	-26.884650	-124.601853
0.450000	-26.024294	-120.852513	-0.054432	-33.992462	-0.054432	-33.992462	-26.002776	-128.963240
0.500000	-25.271599	-124.216702	-0.060508	-37.750804	-0.060508	-37.750804	-25.247109	-133.306669
0.550000	-24.622206	-127.544517	-0.066474	-41.507817	-0.066474	-41.507817	-24.596729	-137.641422
0.600000	-24.061504	-130.839064	-0.072282	-45.263977	-0.072282	-45.263977	-24.036379	-141.974829
0.650000	-23.578568	-134.102026	-0.077900	-49.019754	-0.077900	-49.019754	-23.554566	-146.313328
0.700000	-23.165089	-137.333853	-0.083305	-52.775609	-0.083305	-52.775609	-23.142505	-150.663015
0.750000	-22.814669	-140.533881	-0.088482	-56.531989	-0.088482	-56.531989	-22.793410	-155.029983
0.800000	-22.522352	-143.700402	-0.093421	-60.289330	-0.093421	-60.289330	-22.502021	-159.420543
0.850000	-22.284727	-146.830309	-0.098113	-64.048081	-0.098113	-64.048081	-22.264686	-163.841755
0.900000	-22.098223	-149.920270	-0.102561	-67.808651	-0.102561	-67.808651	-22.077673	-168.300492
0.950000	-21.960913	-152.965052	-0.106761	-71.571482	-0.106761	-71.571482	-21.938926	-172.805008
1.000000	-21.871411	-155.958023	-0.110719	-75.337025	-0.110719	-75.337025	-21.846974	-177.364653
1.050000	-21.828226	-158.891740	-0.114442	-79.105695	-0.114442	-79.105695	-21.800278	178.010814
1.100000	-21.830688	-161.756587	-0.117941	-82.877928	-0.117941	-82.877928	-21.798132	173.309765
1.150000	-21.878525	-164.540744	-0.121229	-86.654162	-0.121229	-86.654162	-21.840234	168.518674
1.200000	-21.971815	-167.229676	-0.124325	-90.434833	-0.124325	-90.434833	-21.926632	163.621603
1.250000	-22.110944	-169.805466	-0.127250	-94.220376	-0.127250	-94.220376	-22.057669	158.599544
1.300000	-22.297007	-172.244159	-0.130027	-98.011280	-0.130027	-98.011280	-22.234366	153.427662
1.350000	-22.530324	-174.519202	-0.132688	-101.807912	-0.132688	-101.807912	-22.456963	148.079208
1.400000	-22.811752	-176.595925	-0.135264	-105.610678	-0.135264	-105.610678	-22.726185	142.519674
1.450000	-23.142013	-178.430901	-0.137794	-109.419968	-0.137794	-109.419968	-23.042582	136.706428
1.500000	-23.521383	-179.969658	-0.140314	-113.236155	-0.140314	-113.236155	-23.406218	130.586625
1.550000	-23.949187	178.856009	-0.142869	-117.059589	-0.142869	-117.059589	-23.816173	124.094830
1.600000	-24.423067	178.135401	-0.145502	-120.890662	-0.145502	-120.890662	-24.269859	117.146104
1.650000	-24.937122	177.971483	-0.148259	-124.729639	-0.148259	-124.729639	-24.761254	109.644077
1.700000	-25.480460	178.485566	-0.151188	-128.576773	-0.151188	-128.576773	-25.279629	101.476562
1.750000	-26.034281	179.811510	-0.154335	-132.432312	-0.154335	-132.432312	-25.806948	92.521409
1.800000	-26.568489	-177.925553	-0.157745	-136.296479	-0.157745	-136.296479	-26.314941	82.666303
1.850000	-27.039170	-174.650305	-0.161464	-140.169470	-0.161464	-140.169470	-26.763040	71.845339
1.900000	-27.388981	-170.397314	-0.165536	-144.051510	-0.165536	-144.051510	-27.098797	60.090771
1.950000	-27.558122	-165.394167	-0.170001	-147.942758	-0.170001	-147.942758	-27.267415	47.605835
2.000000	-27.504493	-160.070739	-0.174894	-151.843305	-0.174894	-151.843305	-27.229076	34.774753
2.050000	-27.219623	-154.960993	-0.180244	-155.753286	-0.180244	-155.753286	-26.972922	22.082195
2.100000	-26.733292	-150.550263	-0.186080	-159.672831	-0.186080	-159.672831	-26.522487	9.983816
2.150000	-26.099655	-147.150201	-0.192421	-163.602078	-0.192421	-163.602078	-25.925094	-1.209404
2.200000	-25.376900	-144.877192	-0.199285	-167.541207	-0.199285	-167.541207	-25.234201	-11.362111
2.250000	-24.613888	-143.703205	-0.206684	-171.490451	-0.206684	-171.490451	-24.496589	-20.478166
2.300000	-23.846483	-143.509946	-0.214619	-175.449941	-0.214619	-175.449941	-23.747966	-28.655321
2.350000	-23.096701	-144.166708	-0.223090	-179.419936	-0.223090	-179.419936	-23.011081	-36.011209
2.400000	-22.377128	-145.548596	-0.232090	176.599254	-0.232090	176.599254	-22.299506	-42.663486
2.450000	-21.694008	-147.547750	-0.241612	172.607247	-0.241612	172.607247	-21.620421	-48.716898
2.500000	-21.049558	-150.075805	-0.251646	168.603586	-0.251646	168.603586	-20.976827	-54.259359
2.550000	-20.443497	-153.066781	-0.262186	164.587586	-0.262186	164.587586	-20.369043	-59.358276
2.600000	-19.874167	-156.460323	-0.273218	160.558726	-0.273218	160.558726	-19.795936	-64.076049
2.650000	-19.338918	-160.214019	-0.284735	156.516256	-0.284735	156.516256	-19.255250	-68.457957
2.700000	-18.834586	-164.295002	-0.296741	152.459308	-0.296741	152.459308	-18.744150	-72.540155
2.750000	-18.357699	-168.677690	-0.309245	148.386900	-0.309245	148.386900	-18.259450	-76.351803
2.800000	-17.904586	-173.341893	-0.322271	144.297929	-0.322271	144.297929	-17.797747	-79.916867
2.850000	-17.471410	-178.273261	-0.335864	140.191014	-0.335864	140.191014	-17.355456	-83.253953
2.900000	-17.054261	176.543789	-0.350082	136.064889	-0.350082	136.064889	-16.928942	-86.382448
2.950000	-16.649200	171.122698	-0.365008	131.918145	-0.365008	131.918145	-16.514546	-89.319626
3.000000	-16.252281	165.476031	-0.380755	127.749226	-0.380755	127.749226	-16.108610	-92.081871
3.050000	-15.859620	159.617065	-0.397469	123.556491	-0.397469	123.556491	-15.707545	-94.686083
3.100000	-15.467469	153.560514	-0.415333	119.338233	-0.415333	119.338233	-15.307896	-97.150301
3.150000	-15.072178	147.322176	-0.434579	115.092550	-0.434579	115.092550	-14.906303	-99.493615
3.200000	-14.670517	140.921353	-0.455482	110.817660	-0.455482	110.817660	-14.499793	-101.737867
3.250000	-14.259895	134.380350	-0.478353	106.511987	-0.478353	106.511987	-14.085982	-103.907034
3.300000	-13.838192	127.722541	-0.503565	102.173885	-0.503565	102.173885	-13.662895	-106.025999
3.350000	-13.404163	120.973223	-0.531525	97.802037	-0.531525	97.802037	-13.229349	-108.120698
3.400000	-12.956493	114.157065	-0.562769	93.394504	-0.562769	93.394504	-12.784054	-110.217532
3.450000	-12.495616	107.300872	-0.597804	88.950576	-0.597804	88.950576	-12.327336	-112.342706
3.500000	-12.022333	100.429547	-0.637224	84.469474	-0.637224	84.469474	-11.859837	-114.520866
3.550000	-11.538071	93.566359	-0.681680	79.950759	-0.681680	79.950759	-11.382769	-116.774670
3.600000	-11.044709	86.732554	-0.731896	75.394317	-0.731896	75.394317	-10.897767	-119.124471
3.650000	-10.544973	79.946256	-0.788574	70.800977	-0.788574	70.800977	-10.407273	-121.586146
3.700000	-10.041668	73.222754	-0.852473	66.171937	-0.852473	66.171937	-9.913822	-124.172364
3.750000	-9.537768	66.574506	-0.924372	61.509053	-0.924372	61.509053	-9.420134	-126.892015
3.800000	-9.036124	60.012045	-1.005112	56.814683	-1.005112	56.814683	-8.928841	-129.751286
3.850000	-8.539911	53.542380	-1.095404	52.092386	-1.095404	52.092386	-8.442914	-132.750785
3.900000	-8.051972	47.171030	-1.195960	47.346262	-1.195960	47.346262	-7.965033	-135.888625
3.950000	-7.574740	40.903454	-1.307566	42.580935	-1.307566	42.580935	-7.497516	-139.161800
4.000000	-7.110725	34.741898	-1.430727	37.802138	-1.430727	37.802138	-7.042768	-142.562025
4.050000	-6.661949	28.688749	-1.565933	33.015994	-1.565933	33.015994	-6.602743	-146.080280
4.100000	-6.230056	22.747677	-1.713722	28.229196	-1.713722	28.229196	-6.179043	-149.707575
4.150000	-5.816507	16.919766	-1.874283	23.448933	-1.874283	23.448933	-5.773100	-153.431367
4.200000	-5.422358	11.206437	-2.047720	18.682541	-2.047720	18.682541	-5.385954	-157.239045
4.250000	-5.048396	5.610810	-2.234134	13.937797	-2.234134	13.937797	-5.018393	-161.118693
4.300000	-4.695092	0.134207	-2.433337	9.222224	-2.433337	9.222224	-4.670891	-165.057076
4.350000	-4.362588	-5.222442	-2.644995	4.542958	-2.644995	4.542958	-4.343605	-169.041261
4.400000	-4.050895	-10.456560	-2.868751	-0.092610	-2.868751	-0.092610	-4.036563	-173.059367
4.450000	-3.759748	-15.566847	-3.104053	-4.677814	-3.104053	-4.677814	-3.749521	-177.099650
4.500000	-3.488588	-20.553398	-3.350212	-9.207088	-3.350212	-9.207088	-3.481945	178.848883
4.550000	-3.236858	-25.414838	-3.606520	-13.674694	-3.606520	-13.674694	-3.233303	174.796136
4.600000	-3.003857	-30.150490	-3.872166	-18.075642	-3.872166	-18.075642	-3.002919	170.751254
4.650000	-2.788682	-34.761228	-4.146275	-22.406262	-4.146275	-22.406262	-2.789919	166.722316
4.700000	-2.590256	-39.249462	-4.427979	-26.664335	-4.427979	-26.664335	-2.593256	162.716056
4.750000	-2.407987	-43.612534	-4.716298	-30.845001	-4.716298	-30.845001	-2.412355	158.739450
4.800000	-2.240579	-47.855369	-5.010387	-34.948458	-5.010387	-34.948458	-2.245952	154.796954
4.850000	-2.087043	-51.980108	-5.309379	-38.973639	-5.309379	-38.973639	-2.093084	150.892782
4.900000	-1.946404	-55.989255	-5.612432	-42.920056	-5.612432	-42.920056	-1.952798	147.030371
4.950000	-1.817716	-59.885627	-5.918738	-46.787736	-5.918738	-46.787736	-1.824168	143.212456
5.000000	-1.700066	-63.672308	-6.227527	-50.577158	-6.227527	-50.577158	-1.706302	139.441139
5.050000	-1.592832	-67.349485	-6.537775	-54.286894	-6.537775	-54.286894	-1.598587	135.719447
5.100000	-1.494940	-70.923557	-6.849025	-57.920236	-6.849025	-57.920236	-1.499973	132.047205
5.150000	-1.405613	-74.398143	-7.160649	-61.478684	-7.160649	-61.478684	-1.409698	128.425040
5.200000	-1.324126	-77.776933	-7.472071	-64.963952	-7.472071	-64.963952	-1.327051	124.853237
5.250000	-1.249806	-81.063650	-7.782766	-68.377918	-7.782766	-68.377918	-1.251370	121.331786
5.300000	-1.182030	-84.262012	-8.092255	-71.722582	-8.092255	-71.722582	-1.182045	117.860443
5.350000	-1.120225	-87.375708	-8.400106	-75.000028	-8.400106	-75.000028	-1.118513	114.438770
5.400000	-1.063866	-90.408375	-8.705930	-78.212389	-8.705930	-78.212389	-1.060257	111.066178
5.450000	-1.012471	-93.363572	-9.009377	-81.361824	-9.009377	-81.361824	-1.006805	107.741959
5.500000	-0.965599	-96.244773	-9.310137	-84.450492	-9.310137	-84.450492	-0.957725	104.465319
5.550000	-0.922850	-99.055348	-9.607933	-87.480535	-9.607933	-87.480535	-0.912623	101.235397
5.600000	-0.883858	-101.798560	-9.902520	-90.454058	-9.902520	-90.454058	-0.871143	98.051288
5.650000	-0.848323	-104.476891	-10.193538	-93.372556	-10.193538	-93.372556	-0.832989	94.912539
5.700000	-0.815935	-107.093467	-10.480800	-96.238102	-10.480800	-96.238102	-0.797860	91.818172
5.750000	-0.786386	-109.651883	-10.764287	-99.053227	-10.764287	-99.053227	-0.765455	88.766752
5.800000	-0.759429	-112.154915	-11.043855	-101.819805	-11.043855	-101.819805	-0.735536	85.757339
5.850000	-0.734840	-114.605217	-11.319379	-104.539637	-11.319379	-104.539637	-0.707883	82.789004
5.900000	-0.712417	-117.005327	-11.590749	-107.214452	-11.590749	-107.214452	-0.682303	79.860837
5.950000	-0.691973	-119.357666	-11.857872	-109.845905	-11.857872	-109.845905	-0.658616	76.971951
6.000000	-0.673343	-121.664544	-12.120667	-112.435575	-12.120667	-112.435575	-0.636663	74.121480
6.050000	-0.656374	-123.928163	-12.379062	-114.984971	-12.379062	-114.984971	-0.616300	71.308586
6.100000	-0.640929	-126.150619	-12.632999	-117.495527	-12.632999	-117.495527	-0.597395	68.532456
6.150000	-0.626883	-128.333910	-12.882424	-119.968606	-12.882424	-119.968606	-0.579832	65.792305
6.200000	-0.614124	-130.479937	-13.127293	-122.405505	-13.127293	-122.405505	-0.563504	63.087375
6.250000	-0.602546	-132.590513	-13.367568	-124.807451	-13.367568	-124.807451	-0.548314	60.416932
6.300000	-0.592080	-134.666664	-13.602978	-127.174901	-13.602978	-127.174901	-0.534198	57.780990
6.350000	-0.582614	-136.710800	-13.833740	-129.509714	-13.833740	-129.509714	-0.521054	55.178116
6.400000	-0.574071	-138.724479	-14.059829	-131.812932	-14.059829	-131.812932	-0.508812	52.607655
6.450000	-0.566382	-140.709185	-14.281220	-134.085541	-14.281220	-134.085541	-0.497409	50.068972
6.500000	-0.559482	-142.666333	-14.497890	-136.328475	-14.497890	-136.328475	-0.486787	47.561454
6.550000	-0.553313	-144.597273	-14.709819	-138.542618	-14.709819	-138.542618	-0.476896	45.084506
6.600000	-0.547822	-146.503291	-14.916985	-140.728811	-14.916985	-140.728811	-0.467689	42.637555
6.650000	-0.542960	-148.385615	-15.119367	-142.887851	-15.119367	-142.887851	-0.459124	40.220042
6.700000	-0.538682	-150.245417	-15.316943	-145.020496	-15.316943	-145.020496	-0.451164	37.831428
6.750000	-0.534949	-152.083818	-15.509690	-147.127468	-15.509690	-147.127468	-0.443774	35.471184
6.800000	-0.531723	-153.901887	-15.697585	-149.209458	-15.697585	-149.209458	-0.436923	33.138800
6.850000	-0.528969	-155.700649	-15.880601	-151.267130	-15.880601	-151.267130	-0.430583	30.833776
6.900000	-0.526715	-157.478632	-16.057513	-153.297865	-16.057513	-153.297865	-0.424794	28.559352
6.950000	-0.524816	-159.241630	-16.230621	-155.308636	-16.230621	-155.308636	-0.419405	26.307808
7.000000	-0.523304	-160.988152	-16.398762	-157.296954	-16.398762	-157.296954	-0.414457	24.082185
7.050000	-0.522154	-162.719059	-16.561901	-159.263406	-16.561901	-159.263406	-0.409933	21.882025
7.100000	-0.521344	-164.435178	-16.720001	-161.208569	-16.720001	-161.208569	-0.405814	19.706877
7.150000	-0.520854	-166.137302	-16.873021	-163.133014	-16.873021	-163.133014	-0.402086	17.556301
7.200000	-0.520666	-167.826197	-17.020918	-165.037311	-17.020918	-165.037311	-0.398734	15.429861
7.250000	-0.520762	-169.502595	-17.163648	-166.922029	-17.163648	-166.922029	-0.395745	13.327129
7.300000	-0.521126	-171.167205	-17.301163	-168.787743	-17.301163	-168.787743	-0.393108	11.247680
7.350000	-0.521744	-172.820708	-17.433415	-170.635035	-17.433415	-170.635035	-0.390811	9.191096
7.400000	-0.522603	-174.463761	-17.560355	-172.464497	-17.560355	-172.464497	-0.388844	7.156962
7.450000	-0.523690	-176.096999	-17.681929	-174.276732	-17.681929	-174.276732	-0.387200	5.144868
7.500000	-0.524993	-177.721035	-17.798088	-176.072359	-17.798088	-176.072359	-0.385869	3.154405
7.550000	-0.526512	-179.336116	-17.908481	-177.851346	-17.908481	-177.851346	-0.384857	1.186073
7.600000	-0.528227	179.056786	-18.013362	-179.615067	-18.013362	-179.615067	-0.384144	-0.761471
7.650000	-0.530130	177.457117	-18.112680	178.635811	-18.112680	178.635811	-0.383723	-2.688628
7.700000	-0.532213	175.864339	-18.206385	176.900605	-18.206385	176.900605	-0.383589	-4.595798
7.750000	-0.534468	174.277928	-18.294428	175.178617	-18.294428	175.178617	-0.383736	-6.483378
7.800000	-0.536889	172.697376	-18.376763	173.469138	-18.376763	173.469138	-0.384159	-8.351766
7.850000	-0.539469	171.122187	-18.453347	171.771446	-18.453347	171.771446	-0.384855	-10.201362
7.900000	-0.542204	169.551878	-18.524139	170.084814	-18.524139	170.084814	-0.385820	-12.032563
7.950000	-0.545089	167.985977	-18.589100	168.408508	-18.589100	168.408508	-0.387050	-13.845768
8.000000	-0.548118	166.424022	-18.648198	166.741793	-18.648198	166.741793	-0.388541	-15.641378
8.050000	-0.551288	164.865560	-18.701399	165.083936	-18.701399	165.083936	-0.390293	-17.419795
8.100000	-0.554596	163.310149	-18.748676	163.434211	-18.748676	163.434211	-0.392301	-19.181423
8.150000	-0.558039	161.757351	-18.790001	161.791897	-18.790001	161.791897	-0.394565	-20.926669
8.200000	-0.561613	160.206739	-18.825353	160.156289	-18.825353	160.156289	-0.397083	-22.655942
8.250000	-0.565317	158.657887	-18.854708	158.526695	-18.854708	158.526695	-0.399855	-24.369656
8.300000	-0.569149	157.110379	-18.878047	156.902440	-18.878047	156.902440	-0.402879	-26.068229
8.350000	-0.573115	155.563817	-18.894998	155.283087	-18.894998	155.283087	-0.406171	-27.751267
8.400000	-0.577184	154.017742	-18.907037	153.667120	-18.907037	153.667120	-0.409669	-29.422634
8.450000	-0.581416	152.471767	-18.911088	152.055607	-18.911088	152.055607	-0.413502	-31.075835
8.500000	-0.585756	150.925418	-18.909945	150.446344	-18.909945	150.446344	-0.417554	-32.717757
8.550000	-0.590204	149.378518	-18.903596	148.839085	-18.903596	148.839085	-0.421826	-34.348594
8.600000	-0.594799	147.830385	-18.890118	147.233904	-18.890118	147.233904	-0.426403	-35.964848
8.650000	-0.599533	146.280480	-18.869923	145.629851	-18.869923	145.629851	-0.431269	-37.568194
8.700000	-0.604380	144.728867	-18.844429	144.026293	-18.844429	144.026293	-0.436368	-39.161758
8.750000	-0.609341	143.175364	-18.813644	142.423007	-18.813644	142.423007	-0.441703	-40.745749
8.800000	-0.614494	141.617943	-18.773995	140.819174	-18.773995	140.819174	-0.447433	-42.315035
8.850000	-0.619771	140.057604	-18.728894	139.214401	-18.728894	139.214401	-0.453418	-43.875946
8.900000	-0.625174	138.494154	-18.678346	137.608464	-18.678346	137.608464	-0.459662	-45.428712
8.950000	-0.630744	136.926305	-18.620730	136.000542	-18.620730	136.000542	-0.466245	-46.971626
9.000000	-0.636506	135.352976	-18.555304	134.389608	-18.555304	134.389608	-0.473213	-48.504890
9.050000	-0.642418	133.775196	-18.484183	132.775959	-18.484183	132.775959	-0.480477	-50.031584
9.100000	-0.648485	132.192746	-18.407389	131.159337	-18.407389	131.159337	-0.488047	-51.551964
9.150000	-0.654811	130.602196	-18.321184	129.537047	-18.321184	129.537047	-0.496116	-53.063616
9.200000	-0.661342	129.005194	-18.228316	127.909830	-18.228316	127.909830	-0.504570	-54.569953
9.250000	-0.668072	127.401947	-18.129397	126.277658	-18.129397	126.277658	-0.513392	-56.071791
9.300000	-0.675051	125.790851	-18.023063	124.639009	-18.023063	124.639009	-0.522671	-57.568841
9.350000	-0.682381	124.168947	-17.906825	122.990783	-17.906825	122.990783	-0.532565	-59.061271
9.400000	-0.689983	122.538902	-17.784002	121.334927	-17.784002	121.334927	-0.542924	-60.551291
9.450000	-0.697873	120.900386	-17.654637	119.670938	-17.654637	119.670938	-0.553767	-62.039252
9.500000	-0.706237	119.248408	-17.514466	117.993345	-17.514466	117.993345	-0.565377	-63.525413
9.550000	-0.715055	117.584232	-17.365367	116.302631	-17.365367	116.302631	-0.577690	-65.011389
9.600000	-0.724302	115.909084	-17.208979	114.599689	-17.208979	114.599689	-0.590645	-66.497843
9.650000	-0.734053	114.221373	-17.044383	112.882383	-17.044383	112.882383	-0.604341	-67.985398
9.700000	-0.744662	112.513783	-16.865900	111.140944	-16.865900	111.140944	-0.619222	-69.476468
9.750000	-0.755774	110.795400	-16.682010	109.385821	-16.682010	109.385821	-0.634773	-70.970066
9.800000	-0.767886	109.056399	-16.485094	107.603683	-16.485094	107.603683	-0.651603	-72.469303
9.850000	-0.781013	107.298085	-16.277089	105.795002	-16.277089	105.795002	-0.669666	-73.974832
9.900000	-0.795284	105.519573	-16.058101	103.957357	-16.058101	103.957357	-0.689053	-75.487752
9.950000	-0.811033	103.716892	-15.825898	102.083558	-15.825898	102.083558	-0.710061	-77.010356
10.000000	-0.828271	101.891742	-15.582771	100.174698	-15.582771	100.174698	-0.732627	-78.542641
