! freq	dB(S11)	phase(S11)	dB(S12)	phase(S12)	
!     	dB(S21)	phase(S21)	dB(S22)	phase(S22)	
!S-par simulation data
#  GHz  S  DB  R 50
0.000000	-90.065042	0.000000	-0.000273	0.000000	-0.000273	0.000000	-90.065042	0.000000
0.050000	-45.559041	-91.251302	-0.001781	-1.542428	-0.001781	-1.542428	-45.441210	-91.705768
0.100000	-39.514009	-92.802728	-0.005069	-3.072623	-0.005069	-3.072623	-39.456224	-93.690547
0.150000	-35.982580	-94.169588	-0.008511	-4.591923	-0.008511	-4.591923	-35.959067	-95.473326
0.200000	-33.483887	-95.503237	-0.011612	-6.105726	-0.011612	-6.105726	-33.478326	-97.216841
0.250000	-31.551568	-96.831980	-0.014456	-7.617431	-0.014456	-7.617431	-31.555839	-98.955462
0.300000	-29.977759	-98.160963	-0.017221	-9.128438	-0.017221	-9.128438	-29.987730	-100.696079
0.350000	-28.652045	-99.490662	-0.020049	-10.639172	-0.020049	-10.639172	-28.665427	-102.439704
0.400000	-27.508082	-100.820543	-0.023021	-12.149694	-0.023021	-12.149694	-27.523553	-104.185800
0.450000	-26.503349	-102.150010	-0.026186	-13.659925	-0.026186	-13.659925	-26.520077	-105.933827
0.500000	-25.609135	-103.478457	-0.029584	-15.169725	-0.029584	-15.169725	-25.626549	-107.683358
0.550000	-24.804524	-104.805423	-0.033220	-16.678984	-0.033220	-16.678984	-24.822235	-109.433954
0.600000	-24.074168	-106.130521	-0.037098	-18.187594	-0.037098	-18.187594	-24.091898	-111.185319
0.650000	-23.406663	-107.453333	-0.041223	-19.695431	-0.041223	-19.695431	-23.424195	-112.937256
0.700000	-22.792989	-108.773532	-0.045593	-21.202401	-0.045593	-21.202401	-22.810156	-114.689601
0.750000	-22.225813	-110.090912	-0.050191	-22.708447	-0.050191	-22.708447	-22.242488	-116.442234
0.800000	-21.699450	-111.405191	-0.055013	-24.213488	-0.055013	-24.213488	-21.715529	-118.195083
0.850000	-21.209391	-112.716020	-0.060055	-25.717426	-0.060055	-25.717426	-21.224786	-119.948107
0.900000	-20.751437	-114.023341	-0.065296	-27.220256	-0.065296	-27.220256	-20.766081	-121.701278
0.950000	-20.322313	-115.326967	-0.070722	-28.721937	-0.070722	-28.721937	-20.336153	-123.454597
1.000000	-19.919570	-116.626508	-0.076332	-30.222367	-0.076332	-30.222367	-19.932556	-125.208094
1.050000	-19.540534	-117.921989	-0.082101	-31.721573	-0.082101	-31.721573	-19.552631	-126.961799
1.100000	-19.183136	-119.213280	-0.088016	-33.219541	-0.088016	-33.219541	-19.194319	-128.715762
1.150000	-18.845826	-120.500079	-0.094068	-34.716208	-0.094068	-34.716208	-18.856070	-130.470063
1.200000	-18.526960	-121.782320	-0.100239	-36.211583	-0.100239	-36.211583	-18.536250	-132.224783
1.250000	-18.225054	-123.059977	-0.106514	-37.705691	-0.106514	-37.705691	-18.233380	-133.980007
1.300000	-17.939025	-124.332848	-0.112880	-39.198509	-0.112880	-39.198509	-17.946381	-135.735855
1.350000	-17.667909	-125.600736	-0.119323	-40.690022	-0.119323	-40.690022	-17.674291	-137.492467
1.400000	-17.410536	-126.863729	-0.125827	-42.180292	-0.125827	-42.180292	-17.415946	-139.249948
1.450000	-17.166075	-128.121723	-0.132378	-43.669334	-0.132378	-43.669334	-17.170517	-141.008444
1.500000	-16.934050	-129.374370	-0.138964	-45.157110	-0.138964	-45.157110	-16.937529	-142.768177
1.550000	-16.713463	-130.621868	-0.145571	-46.643716	-0.145571	-46.643716	-16.715986	-144.529254
1.600000	-16.503691	-131.864147	-0.152184	-48.129184	-0.152184	-48.129184	-16.505266	-146.291852
1.650000	-16.304409	-133.100900	-0.158792	-49.613503	-0.158792	-49.613503	-16.305045	-148.056240
1.700000	-16.114954	-134.332199	-0.165381	-51.096747	-0.165381	-51.096747	-16.114660	-149.822585
1.750000	-15.934769	-135.558067	-0.171941	-52.578978	-0.171941	-52.578978	-15.933553	-151.591067
1.800000	-15.763501	-136.778363	-0.178460	-54.060230	-0.178460	-54.060230	-15.761371	-153.361943
1.850000	-15.600757	-137.993021	-0.184927	-55.540556	-0.184927	-55.540556	-15.597719	-155.135450
1.900000	-15.446232	-139.201917	-0.191330	-57.020005	-0.191330	-57.020005	-15.442289	-156.911874
1.950000	-15.299592	-140.404982	-0.197660	-58.498637	-0.197660	-58.498637	-15.294744	-158.691482
2.000000	-15.160473	-141.602213	-0.203908	-59.976525	-0.203908	-59.976525	-15.154719	-160.474516
2.050000	-15.028592	-142.793540	-0.210064	-61.453733	-0.210064	-61.453733	-15.021927	-162.261256
2.100000	-14.903689	-143.978891	-0.216121	-62.930329	-0.216121	-62.930329	-14.896104	-164.051994
2.150000	-14.785524	-145.158190	-0.222072	-64.406380	-0.222072	-64.406380	-14.777005	-165.847033
2.200000	-14.673872	-146.331353	-0.227907	-65.881958	-0.227907	-65.881958	-14.664402	-167.646683
2.250000	-14.568528	-147.498295	-0.233623	-67.357136	-0.233623	-67.357136	-14.558084	-169.451267
2.300000	-14.469301	-148.658920	-0.239211	-68.831986	-0.239211	-68.831986	-14.457853	-171.261117
2.350000	-14.376013	-149.813126	-0.244667	-70.306584	-0.244667	-70.306584	-14.363527	-173.076573
2.400000	-14.288500	-150.960804	-0.249985	-71.781006	-0.249985	-71.781006	-14.274934	-174.897987
2.450000	-14.206608	-152.101834	-0.255162	-73.255329	-0.255162	-73.255329	-14.191915	-176.725721
2.500000	-14.130195	-153.236088	-0.260194	-74.729628	-0.260194	-74.729628	-14.114321	-178.560146
2.550000	-14.059232	-154.363270	-0.265073	-76.203987	-0.265073	-76.203987	-14.042112	179.598195
2.600000	-13.993493	-155.483377	-0.269801	-77.678482	-0.269801	-77.678482	-13.975056	177.749055
2.650000	-13.932861	-156.596244	-0.274375	-79.153193	-0.274375	-79.153193	-13.913031	175.892032
2.700000	-13.877232	-157.701692	-0.278793	-80.628197	-0.278793	-80.628197	-13.855921	174.026714
2.750000	-13.826506	-158.799531	-0.283054	-82.103573	-0.283054	-82.103573	-13.803619	172.152679
2.800000	-13.780589	-159.889555	-0.287158	-83.579397	-0.287158	-83.579397	-13.756022	170.269495
2.850000	-13.739396	-160.971540	-0.291104	-85.055748	-0.291104	-85.055748	-13.713036	168.376717
2.900000	-13.702845	-162.045251	-0.294893	-86.532702	-0.294893	-86.532702	-13.674569	166.473893
2.950000	-13.670860	-163.110430	-0.298525	-88.010334	-0.298525	-88.010334	-13.640536	164.560557
3.000000	-13.643370	-164.166808	-0.302000	-89.488721	-0.302000	-89.488721	-13.610855	162.636233
3.050000	-13.620306	-165.214091	-0.305322	-90.967936	-0.305322	-90.967936	-13.585448	160.700433
3.100000	-13.601607	-166.251970	-0.308492	-92.448052	-0.308492	-92.448052	-13.564241	158.752660
3.150000	-13.587257	-167.280006	-0.311510	-93.929153	-0.311510	-93.929153	-13.547207	156.792259
3.200000	-13.577197	-168.297835	-0.314379	-95.411312	-0.314379	-95.411312	-13.534275	154.818691
3.250000	-13.571327	-169.305190	-0.317105	-96.894587	-0.317105	-96.894587	-13.525335	152.831553
3.300000	-13.569592	-170.301675	-0.319690	-98.379047	-0.319690	-98.379047	-13.520320	150.830299
3.350000	-13.571943	-171.286872	-0.322139	-99.864758	-0.322139	-99.864758	-13.519169	148.814366
3.400000	-13.578328	-172.260340	-0.324456	-101.351785	-0.324456	-101.351785	-13.521818	146.783180
3.450000	-13.588700	-173.221614	-0.326645	-102.840191	-0.326645	-102.840191	-13.528205	144.736154
3.500000	-13.603008	-174.170203	-0.328711	-104.330037	-0.328711	-104.330037	-13.538267	142.672686
3.550000	-13.621206	-175.105592	-0.330660	-105.821383	-0.330660	-105.821383	-13.551943	140.592162
3.600000	-13.643243	-176.027241	-0.332496	-107.314286	-0.332496	-107.314286	-13.569169	138.493956
3.650000	-13.669071	-176.934582	-0.334226	-108.808803	-0.334226	-108.808803	-13.589880	136.377426
3.700000	-13.698638	-177.827023	-0.335855	-110.304986	-0.335855	-110.304986	-13.614010	134.241918
3.750000	-13.731892	-178.703942	-0.337390	-111.802887	-0.337390	-111.802887	-13.641491	132.086767
3.800000	-13.768852	-179.564326	-0.338835	-113.302595	-0.338835	-113.302595	-13.672317	129.910835
3.850000	-13.809382	179.592166	-0.340199	-114.804119	-0.340199	-114.804119	-13.706342	127.713857
3.900000	-13.853422	178.766238	-0.341489	-116.307504	-0.341489	-116.307504	-13.743488	125.495132
3.950000	-13.900906	177.958620	-0.342712	-117.812793	-0.342712	-117.812793	-13.783672	123.253946
4.000000	-13.951766	177.170072	-0.343874	-119.320024	-0.343874	-119.320024	-13.826804	120.989580
4.050000	-14.005927	176.401376	-0.344984	-120.829237	-0.344984	-120.829237	-13.872793	118.701303
4.100000	-14.063308	175.653344	-0.346048	-122.340464	-0.346048	-122.340464	-13.921536	116.388384
4.150000	-14.123825	174.926809	-0.347074	-123.853739	-0.347074	-123.853739	-13.972929	114.050086
4.200000	-14.187384	174.222628	-0.348070	-125.369092	-0.348070	-125.369092	-14.026857	111.685670
4.250000	-14.253883	173.541679	-0.349044	-126.886550	-0.349044	-126.886550	-14.083199	109.294403
4.300000	-14.323214	172.884860	-0.350003	-128.406137	-0.350003	-128.406137	-14.141824	106.875556
4.350000	-14.395257	172.253085	-0.350955	-129.927875	-0.350955	-129.927875	-14.202592	104.428411
4.400000	-14.469904	171.647573	-0.351908	-131.451807	-0.351908	-131.451807	-14.265370	101.951939
4.450000	-14.547007	171.069290	-0.352871	-132.977949	-0.352871	-132.977949	-14.329992	99.445434
4.500000	-14.626393	170.518896	-0.353850	-134.506293	-0.353850	-134.506293	-14.396269	96.908554
4.550000	-14.707896	169.997328	-0.354855	-136.036849	-0.354855	-136.036849	-14.464019	94.340677
4.600000	-14.791339	169.505516	-0.355891	-137.569624	-0.355891	-137.569624	-14.533050	91.741217
4.650000	-14.876528	169.044376	-0.356969	-139.104624	-0.356969	-139.104624	-14.603155	89.109640
4.700000	-14.963256	168.614798	-0.358094	-140.641852	-0.358094	-140.641852	-14.674116	86.445465
4.750000	-15.051298	168.217642	-0.359275	-142.181307	-0.359275	-142.181307	-14.745705	83.748280
4.800000	-15.140414	167.853722	-0.360518	-143.722986	-0.360518	-143.722986	-14.817680	81.017745
4.850000	-15.230348	167.523797	-0.361832	-145.266884	-0.361832	-145.266884	-14.889786	78.253611
4.900000	-15.320825	167.228559	-0.363223	-146.812992	-0.363223	-146.812992	-14.961758	75.455721
4.950000	-15.411554	166.968619	-0.364698	-148.361299	-0.364698	-148.361299	-15.033323	72.624031
5.000000	-15.502225	166.744488	-0.366263	-149.911792	-0.366263	-149.911792	-15.104194	69.758612
5.050000	-15.592477	166.557359	-0.367929	-151.464501	-0.367929	-151.464501	-15.174038	66.858950
5.100000	-15.681987	166.406713	-0.369698	-153.019360	-0.369698	-153.019360	-15.242580	63.926133
5.150000	-15.770399	166.292660	-0.371576	-154.576347	-0.371576	-154.576347	-15.309517	60.960672
5.200000	-15.857339	166.215144	-0.373570	-156.135440	-0.373570	-156.135440	-15.374538	57.963238
5.250000	-15.942426	166.173922	-0.375685	-157.696610	-0.375685	-157.696610	-15.437335	54.934674
5.300000	-16.025265	166.168551	-0.377926	-159.259832	-0.377926	-159.259832	-15.497600	51.876000
5.350000	-16.105456	166.198370	-0.380297	-160.825073	-0.380297	-160.825073	-15.555031	48.788416
5.400000	-16.182596	166.262487	-0.382803	-162.392302	-0.382803	-162.392302	-15.609332	45.673306
5.450000	-16.256283	166.359764	-0.385448	-163.961484	-0.385448	-163.961484	-15.660220	42.532236
5.500000	-16.326117	166.488810	-0.388235	-165.532583	-0.388235	-165.532583	-15.707428	39.366953
5.550000	-16.391709	166.647976	-0.391169	-167.105561	-0.391169	-167.105561	-15.750703	36.179373
5.600000	-16.452684	166.835353	-0.394251	-168.680378	-0.394251	-168.680378	-15.789816	32.971578
5.650000	-16.508623	167.049029	-0.397485	-170.257012	-0.397485	-170.257012	-15.824511	29.745630
5.700000	-16.559188	167.286498	-0.400874	-171.835420	-0.400874	-171.835420	-15.854607	26.503977
5.750000	-16.604136	167.544810	-0.404418	-173.415538	-0.404418	-173.415538	-15.880008	23.249298
5.800000	-16.643202	167.821088	-0.408116	-174.997321	-0.408116	-174.997321	-15.900600	19.984165
5.850000	-16.676160	168.112264	-0.411971	-176.580723	-0.411971	-176.580723	-15.916304	16.711217
5.900000	-16.702827	168.415117	-0.415982	-178.165699	-0.415982	-178.165699	-15.927078	13.433129
5.950000	-16.723067	168.726300	-0.420148	-179.752202	-0.420148	-179.752202	-15.932915	10.152589
6.000000	-16.736793	169.042383	-0.424468	178.659817	-0.424468	178.659817	-15.933844	6.872266
6.050000	-16.743969	169.359892	-0.428941	177.070403	-0.428941	177.070403	-15.929930	3.594787
6.100000	-16.744609	169.675354	-0.433566	175.479606	-0.433566	175.479606	-15.921273	0.322708
6.150000	-16.738780	169.985333	-0.438339	173.887472	-0.438339	173.887472	-15.908005	-2.941512
6.200000	-16.726597	170.286478	-0.443257	172.294048	-0.443257	172.294048	-15.890289	-6.195530
6.250000	-16.708222	170.575557	-0.448317	170.699380	-0.448317	170.699380	-15.868319	-9.437144
6.300000	-16.683737	170.849100	-0.453519	169.103490	-0.453519	169.103490	-15.842226	-12.663952
6.350000	-16.653524	171.104496	-0.458853	167.506448	-0.458853	167.506448	-15.812345	-15.874358
6.400000	-16.617869	171.339090	-0.464315	165.908299	-0.464315	165.908299	-15.778935	-19.066684
6.450000	-16.577085	171.550465	-0.469900	164.309084	-0.469900	164.309084	-15.742271	-22.239441
6.500000	-16.531512	171.736458	-0.475601	162.708844	-0.475601	162.708844	-15.702639	-25.391333
6.550000	-16.481509	171.895167	-0.481412	161.107617	-0.481412	161.107617	-15.660334	-28.521262
6.600000	-16.427450	172.024958	-0.487326	159.505440	-0.487326	159.505440	-15.615657	-31.628325
6.650000	-16.369719	172.124463	-0.493336	157.902346	-0.493336	157.902346	-15.568909	-34.711807
6.700000	-16.308705	172.192579	-0.499433	156.298369	-0.499433	156.298369	-15.520395	-37.771180
6.750000	-16.244796	172.228454	-0.505609	154.693536	-0.505609	154.693536	-15.470412	-40.806093
6.800000	-16.178379	172.231478	-0.511857	153.087875	-0.511857	153.087875	-15.419257	-43.816364
6.850000	-16.109831	172.201273	-0.518166	151.481408	-0.518166	151.481408	-15.367216	-46.801969
6.900000	-16.039501	172.137307	-0.524528	149.874146	-0.524528	149.874146	-15.314562	-49.762770
6.950000	-15.967757	172.039618	-0.530932	148.266107	-0.530932	148.266107	-15.261572	-52.699041
7.000000	-15.894964	171.908786	-0.537369	146.657310	-0.537369	146.657310	-15.208515	-55.611447
7.050000	-15.821448	171.745191	-0.543828	145.047765	-0.543828	145.047765	-15.155637	-58.500497
7.100000	-15.747518	171.549350	-0.550299	143.437475	-0.550299	143.437475	-15.103169	-61.366807
7.150000	-15.673464	171.321908	-0.556771	141.826440	-0.556771	141.826440	-15.051333	-64.211084
7.200000	-15.599557	171.063616	-0.563233	140.214655	-0.563233	140.214655	-15.000336	-67.034120
7.250000	-15.526050	170.775319	-0.569675	138.602110	-0.569675	138.602110	-14.950371	-69.836780
7.300000	-15.453178	170.457942	-0.576086	136.988791	-0.576086	136.988791	-14.901619	-72.619998
7.350000	-15.381156	170.112474	-0.582455	135.374680	-0.582455	135.374680	-14.854246	-75.384764
7.400000	-15.310182	169.739960	-0.588772	133.759750	-0.588772	133.759750	-14.808407	-78.132123
7.450000	-15.240437	169.341488	-0.595026	132.143973	-0.595026	132.143973	-14.764243	-80.863161
7.500000	-15.172084	168.918181	-0.601207	130.527314	-0.601207	130.527314	-14.721882	-83.579009
7.550000	-15.105295	168.470700	-0.607302	128.909710	-0.607302	128.909710	-14.681482	-86.280552
7.600000	-15.040184	168.000753	-0.613304	127.291137	-0.613304	127.291137	-14.643112	-88.969318
7.650000	-14.976865	167.509523	-0.619204	125.671541	-0.619204	125.671541	-14.606864	-91.646530
7.700000	-14.915441	166.998196	-0.624992	124.050867	-0.624992	124.050867	-14.572818	-94.313435
7.750000	-14.855999	166.467962	-0.630661	122.429054	-0.630661	122.429054	-14.541046	-96.971303
7.800000	-14.798615	165.920012	-0.636204	120.806035	-0.636204	120.806035	-14.511606	-99.621420
7.850000	-14.743353	165.355530	-0.641613	119.181739	-0.641613	119.181739	-14.484547	-102.265092
7.900000	-14.690264	164.775695	-0.646883	117.556092	-0.646883	117.556092	-14.459908	-104.903639
7.950000	-14.639390	164.181678	-0.652009	115.929014	-0.652009	115.929014	-14.437717	-107.538396
8.000000	-14.590760	163.574639	-0.656988	114.300425	-0.656988	114.300425	-14.417993	-110.170712
8.050000	-14.544397	162.955728	-0.661816	112.670241	-0.661816	112.670241	-14.400744	-112.801949
8.100000	-14.500310	162.326082	-0.666491	111.038373	-0.666491	111.038373	-14.385969	-115.433479
8.150000	-14.458526	161.686737	-0.671011	109.404717	-0.671011	109.404717	-14.373683	-118.066723
8.200000	-14.419037	161.038843	-0.675377	107.769180	-0.675377	107.769180	-14.363863	-120.703123
8.250000	-14.381804	160.383603	-0.679592	106.131695	-0.679592	106.131695	-14.356450	-123.344068
8.300000	-14.346804	159.722105	-0.683659	104.492179	-0.683659	104.492179	-14.351401	-125.990972
8.350000	-14.314004	159.055422	-0.687581	102.850547	-0.687581	102.850547	-14.348662	-128.645258
8.400000	-14.283361	158.384615	-0.691364	101.206721	-0.691364	101.206721	-14.348168	-131.308356
8.450000	-14.254827	157.710729	-0.695013	99.560626	-0.695013	99.560626	-14.349841	-133.981699
8.500000	-14.228344	157.034796	-0.698533	97.912193	-0.698533	97.912193	-14.353592	-136.666725
8.550000	-14.203846	156.357834	-0.701932	96.261355	-0.701932	96.261355	-14.359320	-139.364870
8.600000	-14.181258	155.680844	-0.705217	94.608053	-0.705217	94.608053	-14.366911	-142.077568
8.650000	-14.160496	155.004811	-0.708394	92.952232	-0.708394	92.952232	-14.376235	-144.806245
8.700000	-14.141468	154.330698	-0.711470	91.293842	-0.711470	91.293842	-14.387151	-147.552318
8.750000	-14.124073	153.659449	-0.714452	89.632836	-0.714452	89.632836	-14.399499	-150.317185
8.800000	-14.108230	152.992088	-0.717343	87.969110	-0.717343	87.969110	-14.413130	-153.102691
8.850000	-14.093781	152.329443	-0.720151	86.302676	-0.720151	86.302676	-14.427822	-155.909772
8.900000	-14.080597	151.672372	-0.722880	84.633490	-0.722880	84.633490	-14.443367	-158.739731
8.950000	-14.068534	151.021697	-0.725534	82.961501	-0.725534	82.961501	-14.459539	-161.593823
9.000000	-14.057442	150.378201	-0.728114	81.286655	-0.728114	81.286655	-14.476097	-164.473242
9.050000	-14.047159	149.742616	-0.730625	79.608888	-0.730625	79.608888	-14.492780	-167.379110
9.100000	-14.037512	149.115622	-0.733067	77.928127	-0.733067	77.928127	-14.509308	-170.312466
9.150000	-14.028317	148.497836	-0.735441	76.244289	-0.735441	76.244289	-14.525384	-173.274247
9.200000	-14.019382	147.889570	-0.737753	74.557350	-0.737753	74.557350	-14.540719	-176.264587
9.250000	-14.010509	147.291872	-0.740000	72.867015	-0.740000	72.867015	-14.554920	-179.285876
9.300000	-14.001476	146.704789	-0.742189	71.173265	-0.742189	71.173265	-14.567664	177.662342
9.350000	-13.992063	146.128604	-0.744325	69.475961	-0.744325	69.475961	-14.578588	174.579696
9.400000	-13.982043	145.563490	-0.746414	67.774950	-0.746414	67.774950	-14.587311	171.466005
9.450000	-13.971182	145.009507	-0.748467	66.070066	-0.748467	66.070066	-14.593447	168.321287
9.500000	-13.959241	144.466587	-0.750494	64.361136	-0.750494	64.361136	-14.596596	165.145786
9.550000	-13.945981	143.934532	-0.752512	62.647973	-0.752512	62.647973	-14.596354	161.939981
9.600000	-13.931150	143.413050	-0.754537	60.930367	-0.754537	60.930367	-14.592298	158.704464
9.650000	-13.914497	142.901692	-0.756591	59.208095	-0.756591	59.208095	-14.583994	155.440117
9.700000	-13.895801	142.399714	-0.758699	57.481003	-0.758699	57.481003	-14.571083	152.148504
9.750000	-13.874837	141.906325	-0.760890	55.748894	-0.760890	55.748894	-14.553182	148.831179
9.800000	-13.851387	141.420584	-0.763194	54.011575	-0.763194	54.011575	-14.529923	145.489971
9.850000	-13.825251	140.941406	-0.765647	52.268856	-0.765647	52.268856	-14.500962	142.126982
9.900000	-13.796241	140.467571	-0.768288	50.520555	-0.768288	50.520555	-14.465983	138.744572
9.950000	-13.764193	139.997732	-0.771157	48.766498	-0.771157	48.766498	-14.424701	135.345345
10.000000	-13.728964	139.530432	-0.774301	47.006522	-0.774301	47.006522	-14.376873	131.932124
