! freq	dB(S11)	phase(S11)	dB(S12)	phase(S12)	
!     	dB(S21)	phase(S21)	dB(S22)	phase(S22)	
!S-par simulation data
#  GHz  S  DB  R 50
0.000000	-74.399268	0.000000	-0.001655	0.000000	-0.001655	0.000000	-74.399268	0.000000
0.050000	-49.661685	-85.413595	-0.008820	-5.258369	-0.008820	-5.258369	-49.664619	-85.518895
0.100000	-44.365633	-93.629875	-0.021483	-10.480949	-0.021483	-10.480949	-44.368384	-93.663094
0.150000	-41.160199	-101.061348	-0.032095	-15.671227	-0.032095	-15.671227	-41.166806	-101.101094
0.200000	-38.878358	-107.714718	-0.039939	-20.847625	-0.039939	-20.847625	-38.886270	-107.778746
0.250000	-37.144589	-113.937623	-0.046207	-26.020832	-0.046207	-26.020832	-37.152449	-114.027231
0.300000	-35.783512	-119.889544	-0.051643	-31.194017	-0.051643	-31.194017	-35.790730	-120.003754
0.350000	-34.703301	-125.660163	-0.056701	-36.368242	-0.056701	-36.368242	-34.709669	-125.798206
0.400000	-33.849935	-131.309471	-0.061641	-41.543770	-0.061641	-41.543770	-33.855455	-131.471570
0.450000	-33.180679	-136.880350	-0.066584	-46.720573	-0.066584	-46.720573	-33.185453	-137.067691
0.500000	-32.671797	-142.396181	-0.071575	-51.898713	-0.071575	-51.898713	-32.675960	-142.610813
0.550000	-32.316513	-147.872493	-0.076628	-57.078437	-0.076628	-57.078437	-32.320217	-148.117564
0.600000	-32.101466	-153.324523	-0.081733	-62.259944	-0.081733	-62.259944	-32.104860	-153.604091
0.650000	-32.019057	-158.762339	-0.086871	-67.443493	-0.086871	-67.443493	-32.022273	-159.081451
0.700000	-32.069973	-164.193576	-0.092024	-72.629450	-0.092024	-72.629450	-32.073131	-164.558643
0.750000	-32.271454	-169.626209	-0.097173	-77.818512	-0.097173	-77.818512	-32.274660	-170.046481
0.800000	-32.621806	-175.068610	-0.102308	-83.010905	-0.102308	-83.010905	-32.625128	-175.555667
0.850000	-33.138375	179.469433	-0.107423	-88.207075	-0.107423	-88.207075	-33.141840	178.899731
0.900000	-33.853792	173.972312	-0.112519	-93.407629	-0.112519	-93.407629	-33.857352	173.296445
0.950000	-34.816762	168.411504	-0.117605	-98.613197	-0.117605	-98.613197	-34.820206	167.591589
1.000000	-36.089895	162.743826	-0.122698	-103.823930	-0.122698	-103.823930	-36.092682	161.720435
1.050000	-37.798895	156.881008	-0.127818	-109.040198	-0.127818	-109.040198	-37.799606	155.549819
1.100000	-40.205788	150.567824	-0.132992	-114.262727	-0.132992	-114.262727	-40.199724	148.694733
1.150000	-43.905784	142.926738	-0.138249	-119.491639	-0.138249	-119.491639	-43.871053	139.843307
1.200000	-51.026055	126.460104	-0.143614	-124.726977	-0.143614	-124.726977	-50.699769	118.992774
1.250000	-57.412812	-9.278544	-0.149113	-129.968913	-0.149113	-129.968913	-55.972529	1.703247
1.300000	-45.649852	-38.104297	-0.154785	-135.218214	-0.154785	-135.218214	-45.499553	-33.833601
1.350000	-40.595869	-47.170864	-0.160636	-140.474338	-0.160636	-140.474338	-40.538817	-44.705352
1.400000	-37.360903	-53.856264	-0.166677	-145.737335	-0.166677	-145.737335	-37.328837	-52.106587
1.450000	-34.989204	-59.857523	-0.172920	-151.007443	-0.172920	-151.007443	-34.967706	-58.485188
1.500000	-33.132576	-65.581639	-0.179359	-156.284664	-0.179359	-156.284664	-33.116682	-64.444414
1.550000	-31.625244	-71.163960	-0.185987	-161.569222	-0.185987	-161.569222	-31.612733	-70.185818
1.600000	-30.373488	-76.671974	-0.192772	-166.860824	-0.192772	-166.860824	-30.363226	-75.810353
1.650000	-29.322762	-82.134445	-0.199691	-172.159886	-0.199691	-172.159886	-29.314097	-81.360653
1.700000	-28.436178	-87.570427	-0.206701	-177.466481	-0.206701	-177.466481	-28.428715	-86.865296
1.750000	-27.688565	-92.990436	-0.213759	177.219177	-0.213759	177.219177	-27.682051	-92.340179
1.800000	-27.065743	-98.400563	-0.220812	171.896378	-0.220812	171.896378	-27.060004	-97.794454
1.850000	-26.552608	-103.805042	-0.227812	166.565014	-0.227812	166.565014	-26.547517	-103.235084
1.900000	-26.144770	-109.205911	-0.234699	161.224019	-0.234699	161.224019	-26.140225	-108.665305
1.950000	-25.835079	-114.604573	-0.241426	155.872874	-0.241426	155.872874	-25.830997	-114.087794
2.000000	-25.621252	-120.001690	-0.247944	150.510647	-0.247944	150.510647	-25.617557	-119.503902
2.050000	-25.505712	-125.397561	-0.254207	145.135957	-0.254207	145.135957	-25.502331	-124.914278
2.100000	-25.486900	-130.792299	-0.260194	139.748153	-0.260194	139.748153	-25.483769	-130.319425
2.150000	-25.572980	-136.185647	-0.265877	134.345529	-0.265877	134.345529	-25.570033	-135.718934
2.200000	-25.773201	-141.576879	-0.271249	128.926571	-0.271249	128.926571	-25.770375	-141.111739
2.250000	-26.099342	-146.964404	-0.276327	123.489982	-0.276327	123.489982	-26.096570	-146.495593
2.300000	-26.570853	-152.344927	-0.281140	118.034216	-0.281140	118.034216	-26.568058	-151.865924
2.350000	-27.214432	-157.712337	-0.285744	112.558025	-0.285744	112.558025	-27.211517	-157.214577
2.400000	-28.078305	-163.053823	-0.290204	107.059233	-0.290204	107.059233	-28.075120	-162.524613
2.450000	-29.236852	-168.342299	-0.294622	101.535882	-0.294622	101.535882	-29.233127	-167.761015
2.500000	-30.806604	-173.523969	-0.299116	95.987392	-0.299116	95.987392	-30.801794	-172.855313
2.550000	-33.023261	-178.472552	-0.303817	90.412597	-0.303817	90.412597	-33.015997	-177.647238
2.600000	-36.476967	177.278736	-0.308904	84.808337	-0.308904	84.808337	-36.462129	178.453833
2.650000	-43.245398	176.606267	-0.314561	79.173697	-0.314561	79.173697	-43.178797	179.048625
2.700000	-51.930241	-51.342416	-0.320994	73.507411	-0.320994	73.507411	-51.418528	-56.017868
2.750000	-38.368482	-29.040715	-0.328436	67.807898	-0.328436	67.807898	-38.347926	-30.376126
2.800000	-32.885880	-32.285523	-0.337123	62.074144	-0.337123	62.074144	-32.880346	-32.970068
2.850000	-29.340810	-37.130505	-0.347290	56.305368	-0.347290	56.305368	-29.338525	-37.574757
2.900000	-26.673337	-42.469556	-0.359293	50.498743	-0.359293	50.498743	-26.672238	-42.794464
2.950000	-24.521435	-48.029342	-0.373328	44.655070	-0.373328	44.655070	-24.520909	-48.283465
3.000000	-22.703611	-53.729787	-0.389790	38.771645	-0.389790	38.771645	-22.703408	-53.939628
3.050000	-21.126538	-59.526857	-0.408922	32.848740	-0.408922	32.848740	-21.126544	-59.707304
3.100000	-19.728432	-65.403318	-0.431136	26.884238	-0.431136	26.884238	-19.728584	-65.564145
3.150000	-18.471039	-71.347295	-0.456766	20.877530	-0.456766	20.877530	-18.471302	-71.494999
3.200000	-17.326781	-77.352893	-0.486221	14.827314	-0.486221	14.827314	-17.327132	-77.492095
3.250000	-16.276199	-83.416017	-0.519889	8.732858	-0.519889	8.732858	-16.276625	-83.550077
3.300000	-15.304394	-89.534496	-0.558203	2.593203	-0.558203	2.593203	-15.304886	-89.665942
3.350000	-14.399754	-95.707295	-0.601649	-3.592739	-0.601649	-3.592739	-14.400305	-95.838075
3.400000	-13.553412	-101.933427	-0.650693	-9.825513	-0.650693	-9.825513	-13.554019	-102.065045
3.450000	-12.757868	-108.213019	-0.705917	-16.106240	-0.705917	-16.106240	-12.758529	-108.346663
3.500000	-12.007074	-114.546352	-0.767956	-22.435896	-0.767956	-22.435896	-12.007785	-114.682954
3.550000	-11.296345	-120.933044	-0.837403	-28.814642	-0.837403	-28.814642	-11.297103	-121.073326
3.600000	-10.621628	-127.373087	-0.914957	-35.242822	-0.914957	-35.242822	-10.622431	-127.517601
3.650000	-9.979569	-133.866289	-1.001372	-41.720509	-1.001372	-41.720509	-9.980413	-134.015446
3.700000	-9.367400	-140.412158	-1.097459	-48.247433	-1.097459	-48.247433	-9.368280	-140.566246
3.750000	-8.782849	-147.009784	-1.204089	-54.822899	-1.204089	-54.822899	-8.783760	-147.168985
3.800000	-8.223970	-153.658239	-1.322303	-61.446189	-1.322303	-61.446189	-8.224907	-153.822644
3.850000	-7.689451	-160.354827	-1.452975	-68.114924	-1.452975	-68.114924	-7.690407	-160.524442
3.900000	-7.178164	-167.096640	-1.597122	-74.826533	-1.597122	-74.826533	-7.179132	-167.271396
3.950000	-6.689271	-173.879885	-1.755789	-81.577628	-1.755789	-81.577628	-6.690245	-174.059648
4.000000	-6.222180	179.300204	-1.930036	-88.363909	-1.930036	-88.363909	-6.223153	179.115627
4.050000	-5.776508	172.449439	-2.120913	-95.180086	-2.120913	-95.180086	-5.777475	172.260293
4.100000	-5.352051	165.574597	-2.329549	-102.019953	-2.329549	-102.019953	-5.353006	165.381177
4.150000	-4.948747	158.683948	-2.556832	-108.875839	-2.556832	-108.875839	-4.949688	158.486588
4.200000	-4.566586	151.786669	-2.803592	-115.739161	-2.803592	-115.739161	-4.567507	151.585737
4.250000	-4.205591	144.892858	-3.070572	-122.600386	-3.070572	-122.600386	-4.206490	144.688750
4.300000	-3.865778	138.013476	-3.358361	-129.449069	-3.358361	-129.449069	-3.866654	137.806610
4.350000	-3.547121	131.160174	-3.667370	-136.274002	-3.667370	-136.274002	-3.547974	130.950985
4.400000	-3.249577	124.345353	-3.997842	-143.063152	-3.997842	-143.063152	-3.250406	124.134287
4.450000	-2.972953	117.581575	-4.349724	-149.804202	-4.349724	-149.804202	-2.973758	117.369083
4.500000	-2.717026	110.881935	-4.722749	-156.484219	-4.722749	-156.484219	-2.717809	110.668469
4.550000	-2.481048	104.257051	-5.116275	-163.092542	-5.116275	-163.092542	-2.481810	104.043046
4.600000	-2.264163	97.716443	-5.529658	-169.619534	-5.529658	-169.619534	-2.264904	97.502314
4.650000	-2.066219	91.274573	-5.961982	-176.050715	-5.961982	-176.050715	-2.066941	91.060736
4.700000	-1.886140	84.939707	-6.412073	177.622444	-6.412073	177.622444	-1.886843	84.726550
4.750000	-1.723036	78.720992	-6.878560	171.409325	-6.878560	171.409325	-1.723722	78.508879
4.800000	-1.576034	72.627468	-7.359768	165.319214	-7.359768	165.319214	-1.576703	72.416739
4.850000	-1.443431	66.658712	-7.854848	159.352044	-7.854848	159.352044	-1.444083	66.449665
4.900000	-1.324479	60.822579	-8.361958	153.515850	-8.361958	153.515850	-1.325116	60.615489
4.950000	-1.218076	55.122317	-8.879538	147.814089	-8.879538	147.814089	-1.218697	54.917431
5.000000	-1.123134	49.559977	-9.406035	142.248982	-9.406035	142.248982	-1.123741	49.357513
5.050000	-1.038792	44.139533	-9.939341	136.824602	-9.939341	136.824602	-1.039384	43.939681
5.100000	-0.963823	38.857888	-10.478502	131.537959	-10.478502	131.537959	-0.964401	38.660809
5.150000	-0.897286	33.714093	-11.022149	126.388139	-11.022149	126.388139	-0.897850	33.519921
5.200000	-0.838304	28.706470	-11.568999	121.373463	-11.568999	121.373463	-0.838855	28.515315
5.250000	-0.786070	23.832729	-12.117858	116.491608	-12.117858	116.491608	-0.786608	23.644679
5.300000	-0.739846	19.090087	-12.667626	111.739731	-12.667626	111.739731	-0.740372	18.905209
5.350000	-0.698962	14.475365	-13.217301	107.114576	-13.217301	107.114576	-0.699477	14.293707
5.400000	-0.662816	9.985083	-13.765975	102.612572	-13.765975	102.612572	-0.663320	9.806677
5.450000	-0.630867	5.615540	-14.312833	98.229922	-14.312833	98.229922	-0.631361	5.440404
5.500000	-0.602634	1.362889	-14.857146	93.962681	-14.857146	93.962681	-0.603118	1.191026
5.550000	-0.577688	-2.776810	-15.398270	89.806814	-15.398270	89.806814	-0.578163	-2.945410
5.600000	-0.555651	-6.807536	-15.935639	85.758258	-15.935639	85.758258	-0.556118	-6.972891
5.650000	-0.536214	-10.732169	-16.468355	81.814042	-16.468355	81.814042	-0.536674	-10.894309
5.700000	-0.519076	-14.554786	-16.996001	77.970034	-16.996001	77.970034	-0.519527	-14.713747
5.750000	-0.503952	-18.280405	-17.518622	74.221201	-17.518622	74.221201	-0.504397	-18.436231
5.800000	-0.490619	-21.912819	-18.035911	70.563738	-18.035911	70.563738	-0.491057	-22.065559
5.850000	-0.478881	-25.455725	-18.547610	66.993966	-18.547610	66.993966	-0.479312	-25.605434
5.900000	-0.468565	-28.912712	-19.053506	63.508340	-19.053506	63.508340	-0.468990	-29.059447
5.950000	-0.459520	-32.287250	-19.553425	60.103463	-19.553425	60.103463	-0.459940	-32.431074
6.000000	-0.451616	-35.582692	-20.047231	56.776095	-20.047231	56.776095	-0.452030	-35.723669
6.050000	-0.444736	-38.802265	-20.534817	53.523150	-20.534817	53.523150	-0.445145	-38.940462
6.100000	-0.438780	-41.949074	-21.016106	50.341709	-21.016106	50.341709	-0.439183	-42.084558
6.150000	-0.433657	-45.026098	-21.491047	47.229013	-21.491047	47.229013	-0.434054	-45.158940
6.200000	-0.429289	-48.036198	-21.959610	44.182471	-21.959610	44.182471	-0.429682	-48.166468
6.250000	-0.425608	-50.982113	-22.421785	41.199653	-22.421785	41.199653	-0.425995	-51.109882
6.300000	-0.422571	-53.864536	-22.876596	38.280241	-22.876596	38.280241	-0.422953	-53.989876
6.350000	-0.420102	-56.688076	-23.325100	35.420057	-23.325100	35.420057	-0.420479	-56.811059
6.400000	-0.418154	-59.455128	-23.767332	32.617183	-23.767332	32.617183	-0.418525	-59.575824
6.450000	-0.416683	-62.167984	-24.203334	29.869861	-24.203334	29.869861	-0.417049	-62.286461
6.500000	-0.415652	-64.828835	-24.633160	27.176494	-24.633160	27.176494	-0.416013	-64.945163
6.550000	-0.415028	-67.439780	-25.056867	24.535645	-25.056867	24.535645	-0.415383	-67.554027
6.600000	-0.414779	-70.002825	-25.474518	21.946039	-25.474518	21.946039	-0.415129	-70.115058
6.650000	-0.414878	-72.519894	-25.886180	19.406559	-25.886180	19.406559	-0.415224	-72.630178
6.700000	-0.415301	-74.992826	-26.291918	16.916248	-26.291918	16.916248	-0.415641	-75.101225
6.750000	-0.416024	-77.423383	-26.691800	14.474311	-26.691800	14.474311	-0.416359	-77.529960
6.800000	-0.417027	-79.813253	-27.085888	12.080112	-27.085888	12.080112	-0.417358	-79.918070
6.850000	-0.418292	-82.164053	-27.474242	9.733175	-27.474242	9.733175	-0.418618	-82.267171
6.900000	-0.419801	-84.477334	-27.856914	7.433188	-27.856914	7.433188	-0.420123	-84.578811
6.950000	-0.421540	-86.754583	-28.233947	5.179999	-28.233947	5.179999	-0.421856	-86.854475
7.000000	-0.423493	-88.997225	-28.605374	2.973616	-28.605374	2.973616	-0.423806	-89.095589
7.050000	-0.425649	-91.206629	-28.971213	0.814208	-28.971213	0.814208	-0.425957	-91.303520
7.100000	-0.427994	-93.384110	-29.331467	-1.297895	-29.331467	-1.297895	-0.428298	-93.479579
7.150000	-0.430520	-95.530927	-29.686119	-3.362209	-29.686119	-3.362209	-0.430820	-95.625027
7.200000	-0.433215	-97.648295	-30.035128	-5.378096	-30.035128	-5.378096	-0.433511	-97.741074
7.250000	-0.436070	-99.737377	-30.378428	-7.344775	-30.378428	-7.344775	-0.436363	-99.828884
7.300000	-0.439079	-101.799293	-30.715926	-9.261325	-30.715926	-9.261325	-0.439368	-101.889576
7.350000	-0.442232	-103.835121	-31.047490	-11.126697	-31.047490	-11.126697	-0.442518	-103.924225
7.400000	-0.445524	-105.845897	-31.372955	-12.939733	-31.372955	-12.939733	-0.445806	-105.933866
7.450000	-0.448949	-107.832617	-31.692112	-14.699182	-31.692112	-14.699182	-0.449228	-107.919496
7.500000	-0.452501	-109.796243	-32.004706	-16.403723	-32.004706	-16.403723	-0.452776	-109.882073
7.550000	-0.456179	-111.736778	-32.309662	-18.049485	-32.309662	-18.049485	-0.456452	-111.821600
7.600000	-0.459975	-113.656111	-32.607399	-19.637497	-32.607399	-19.637497	-0.460244	-113.739966
7.650000	-0.463885	-115.555096	-32.897491	-21.166449	-32.897491	-21.166449	-0.464150	-115.638023
7.700000	-0.467904	-117.434558	-33.179452	-22.635134	-33.179452	-22.635134	-0.468166	-117.516593
7.750000	-0.472029	-119.295291	-33.452728	-24.042508	-33.452728	-24.042508	-0.472289	-119.376471
7.800000	-0.476258	-121.138061	-33.716702	-25.387755	-33.716702	-25.387755	-0.476514	-121.218422
7.850000	-0.480588	-122.963609	-33.970693	-26.670368	-33.970693	-26.670368	-0.480841	-123.043185
7.900000	-0.485017	-124.772649	-34.213956	-27.890225	-34.213956	-27.890225	-0.485266	-124.851474
7.950000	-0.489542	-126.565870	-34.445687	-29.047677	-34.445687	-29.047677	-0.489788	-126.643978
8.000000	-0.494160	-128.343942	-34.665036	-30.143630	-34.665036	-30.143630	-0.494403	-128.421364
8.050000	-0.498870	-130.107509	-34.871110	-31.179634	-34.871110	-31.179634	-0.499109	-130.184276
8.100000	-0.503670	-131.857197	-35.062990	-32.157952	-35.062990	-32.157952	-0.503905	-131.933340
8.150000	-0.508556	-133.593610	-35.239748	-33.081627	-35.239748	-33.081627	-0.508788	-133.669160
8.200000	-0.513528	-135.317336	-35.400467	-33.954525	-35.400467	-33.954525	-0.513756	-135.392322
8.250000	-0.518582	-137.028945	-35.544262	-34.781355	-35.544262	-34.781355	-0.518806	-137.103396
8.300000	-0.523715	-138.728991	-35.670303	-35.567659	-35.670303	-35.567659	-0.523936	-138.802934
8.350000	-0.528929	-140.417418	-35.776667	-36.318411	-35.776667	-36.318411	-0.529146	-140.490883
8.400000	-0.534204	-142.097239	-35.867701	-37.045896	-35.867701	-37.045896	-0.534417	-142.170248
8.450000	-0.539569	-143.763989	-35.932660	-37.748558	-35.932660	-37.748558	-0.539779	-143.836576
8.500000	-0.544990	-145.422818	-35.980633	-38.444017	-35.980633	-38.444017	-0.545196	-145.495005
8.550000	-0.550464	-147.073937	-36.011388	-39.135908	-36.011388	-39.135908	-0.550666	-147.145745
8.600000	-0.556005	-148.715113	-36.018531	-39.832936	-36.018531	-39.832936	-0.556203	-148.786569
8.650000	-0.561600	-150.347726	-36.003812	-40.547467	-36.003812	-40.547467	-0.561796	-150.418857
8.700000	-0.567236	-151.973964	-35.972129	-41.281770	-35.972129	-41.281770	-0.567428	-152.044788
8.750000	-0.572909	-153.594027	-35.923740	-42.039286	-35.923740	-42.039286	-0.573098	-153.664564
8.800000	-0.578631	-155.204886	-35.848639	-42.848795	-35.848639	-42.848795	-0.578816	-155.275166
8.850000	-0.584376	-156.810667	-35.758051	-43.697466	-35.758051	-43.697466	-0.584558	-156.880707
8.900000	-0.590143	-158.411567	-35.652506	-44.587497	-35.652506	-44.587497	-0.590322	-158.481385
8.950000	-0.595930	-160.006701	-35.528382	-45.535067	-35.528382	-45.535067	-0.596106	-160.076317
9.000000	-0.601730	-161.596407	-35.385145	-46.550643	-35.385145	-46.550643	-0.601903	-161.665843
9.050000	-0.607536	-163.182540	-35.229159	-47.618515	-35.229159	-47.618515	-0.607706	-163.251811
9.100000	-0.613345	-164.765303	-35.061105	-48.739789	-35.061105	-48.739789	-0.613513	-164.834426
9.150000	-0.619152	-166.343660	-34.873534	-49.946618	-34.873534	-49.946618	-0.619316	-166.412656
9.200000	-0.624953	-167.919541	-34.673877	-51.215117	-34.673877	-51.215117	-0.625115	-167.988427
9.250000	-0.630751	-169.493426	-34.464101	-52.540345	-34.464101	-52.540345	-0.630910	-169.562214
9.300000	-0.636544	-171.065335	-34.242104	-53.932894	-34.242104	-53.932894	-0.636699	-171.134042
9.350000	-0.642332	-172.635706	-34.004022	-55.408223	-34.004022	-55.408223	-0.642483	-172.704354
9.400000	-0.648125	-174.205538	-33.757079	-56.940231	-33.757079	-56.940231	-0.648272	-174.274139
9.450000	-0.653925	-175.775062	-33.501809	-58.528821	-33.501809	-58.528821	-0.654068	-175.843632
9.500000	-0.659749	-177.344912	-33.231084	-60.199402	-33.231084	-60.199402	-0.659888	-177.413471
9.550000	-0.665614	-178.915812	-32.948992	-61.936611	-32.948992	-61.936611	-0.665748	-178.984379
9.600000	-0.671529	179.512028	-32.658854	-63.730482	-32.658854	-63.730482	-0.671658	179.443438
9.650000	-0.677510	177.938159	-32.359447	-65.586422	-32.359447	-65.586422	-0.677634	177.869528
9.700000	-0.683636	176.360805	-32.041531	-67.532267	-32.041531	-67.532267	-0.683755	176.292106
9.750000	-0.689896	174.780568	-31.715016	-69.538380	-31.715016	-69.538380	-0.690010	174.711782
9.800000	-0.696309	173.197197	-31.380325	-71.605956	-31.380325	-71.605956	-0.696419	173.128306
9.850000	-0.702982	171.608870	-31.029286	-73.760942	-31.029286	-73.760942	-0.703088	171.539847
9.900000	-0.709981	170.015059	-30.662332	-76.004263	-30.662332	-76.004263	-0.710084	169.945878
9.950000	-0.717285	168.416523	-30.285821	-78.321715	-30.285821	-78.321715	-0.717388	168.347164
10.000000	-0.724923	166.813026	-29.900374	-80.715999	-29.900374	-80.715999	-0.725027	166.743467
