! freq	dB(S11)	phase(S11)	dB(S12)	phase(S12)	
!     	dB(S21)	phase(S21)	dB(S22)	phase(S22)	
!S-par simulation data
#  GHz  S  DB  R 50
0.000000	-79.790103	0.000000	-0.000890	0.000000	-0.000890	0.000000	-79.790103	0.000000
0.050000	-43.626592	-91.455329	-0.008600	-4.255293	-0.008600	-4.255293	-43.626464	-91.452953
0.100000	-37.784570	-97.085886	-0.015806	-8.453143	-0.015806	-8.453143	-37.784413	-97.081767
0.150000	-34.362744	-102.018062	-0.021771	-12.642795	-0.021771	-12.642795	-34.362560	-102.011974
0.200000	-31.964669	-106.665290	-0.027823	-16.827345	-0.027823	-16.827345	-31.964462	-106.657222
0.250000	-30.142749	-111.160367	-0.034052	-21.006378	-0.034052	-21.006378	-30.142522	-111.150314
0.300000	-28.691154	-115.566633	-0.040352	-25.180809	-0.040352	-25.180809	-28.690911	-115.554570
0.350000	-27.502753	-119.912598	-0.046651	-29.351581	-0.046651	-29.351581	-27.502496	-119.898480
0.400000	-26.510639	-124.219019	-0.052922	-33.519786	-0.052922	-33.519786	-26.510371	-124.202781
0.450000	-25.674195	-128.497952	-0.059157	-37.686195	-0.059157	-37.686195	-25.673917	-128.479511
0.500000	-24.964553	-132.758315	-0.065351	-41.851478	-0.065351	-41.851478	-24.964265	-132.737573
0.550000	-24.362007	-137.005739	-0.071492	-46.016170	-0.071492	-46.016170	-24.361709	-136.982580
0.600000	-23.852307	-141.243802	-0.077555	-50.180748	-0.077555	-50.180748	-23.851998	-141.218091
0.650000	-23.425337	-145.474562	-0.083506	-54.345661	-0.083506	-54.345661	-23.425016	-145.446141
0.700000	-23.073436	-149.699139	-0.089300	-58.511344	-0.089300	-58.511344	-23.073101	-149.667825
0.750000	-22.790708	-153.918154	-0.094890	-62.678213	-0.094890	-62.678213	-22.790358	-153.883735
0.800000	-22.573181	-158.132081	-0.100226	-66.846673	-0.100226	-66.846673	-22.572815	-158.094314
0.850000	-22.418178	-162.341591	-0.105262	-71.017118	-0.105262	-71.017118	-22.417795	-162.300190
0.900000	-22.324089	-166.547715	-0.109964	-75.189934	-0.109964	-75.189934	-22.323688	-166.502346
0.950000	-22.290388	-170.751864	-0.114306	-79.365516	-0.114306	-79.365516	-22.289968	-170.702135
1.000000	-22.317559	-174.955761	-0.118275	-83.544290	-0.118275	-83.544290	-22.317120	-174.901205
1.050000	-22.406091	-179.161255	-0.121881	-87.726659	-0.121881	-87.726659	-22.405630	-179.101317
1.100000	-22.557842	176.629835	-0.125143	-91.913077	-0.125143	-91.913077	-22.557356	176.695826
1.150000	-22.775677	172.415803	-0.128091	-96.104027	-0.128091	-96.104027	-22.775165	172.488665
1.200000	-23.063675	168.195090	-0.130767	-100.300009	-0.130767	-100.300009	-23.063134	168.275832
1.250000	-23.427427	163.966255	-0.133219	-104.501534	-0.133219	-104.501534	-23.426853	164.056138
1.300000	-23.875198	159.727780	-0.135502	-108.709177	-0.135502	-108.709177	-23.874586	159.828433
1.350000	-24.416493	155.478266	-0.137679	-112.923360	-0.137679	-112.923360	-24.415838	155.591786
1.400000	-25.065174	151.215941	-0.139813	-117.144536	-0.139813	-117.144536	-25.064469	151.345119
1.450000	-25.840425	146.938441	-0.141970	-121.373111	-0.141970	-121.373111	-25.839661	147.087102
1.500000	-26.769496	142.642282	-0.144219	-125.609444	-0.144219	-125.609444	-26.768663	142.815863
1.550000	-27.892586	138.321848	-0.146628	-129.853839	-0.146628	-129.853839	-27.891669	138.528451
1.600000	-29.272803	133.966819	-0.149265	-134.106611	-0.149265	-134.106611	-29.271787	134.219452
1.650000	-31.014176	129.557294	-0.152195	-138.367904	-0.152195	-138.367904	-31.013045	129.878521
1.700000	-33.310604	125.047386	-0.155479	-142.637829	-0.155479	-142.637829	-33.309372	125.481760
1.750000	-36.590345	120.301923	-0.159173	-146.916467	-0.159173	-146.916467	-36.589233	120.958705
1.800000	-42.163512	114.674153	-0.163329	-151.203854	-0.163329	-151.203854	-42.165049	115.971942
1.850000	-61.336894	75.290707	-0.167991	-155.499989	-0.167991	-155.499989	-61.953960	85.857548
1.900000	-43.372663	-67.935665	-0.173199	-159.804890	-0.173199	-159.804890	-43.388936	-69.500268
1.950000	-36.926183	-73.932391	-0.178985	-164.118504	-0.178985	-164.118504	-36.931386	-74.692008
2.000000	-33.233940	-78.779928	-0.185368	-168.440714	-0.185368	-168.440714	-33.236771	-79.285983
2.050000	-30.637818	-83.364370	-0.192362	-172.771441	-0.192362	-172.771441	-30.639679	-83.746121
2.100000	-28.639049	-87.851176	-0.199978	-177.110582	-0.199978	-177.110582	-28.640392	-88.158942
2.150000	-27.019269	-92.294071	-0.208215	178.542009	-0.208215	178.542009	-27.020290	-92.552609
2.200000	-25.663026	-96.715877	-0.217062	174.186551	-0.217062	174.186551	-25.663825	-96.939191
2.250000	-24.501730	-101.128161	-0.226467	169.823381	-0.226467	169.823381	-24.502368	-101.324930
2.300000	-23.490954	-105.537595	-0.236282	165.452891	-0.236282	165.452891	-23.491467	-105.713492
2.350000	-22.600297	-109.948347	-0.246257	161.074570	-0.246257	161.074570	-22.600709	-110.107306
2.400000	-21.807907	-114.363348	-0.256226	156.686320	-0.256226	156.686320	-21.808235	-114.508195
2.450000	-21.097446	-118.784843	-0.266328	152.285918	-0.266328	152.285918	-21.097703	-118.917663
2.500000	-20.456288	-123.214688	-0.276811	147.872941	-0.276811	147.872941	-20.456481	-123.337050
2.550000	-19.874548	-127.654644	-0.287753	143.447765	-0.287753	143.447765	-19.874684	-127.767759
2.600000	-19.343814	-132.106134	-0.299092	139.010622	-0.299092	139.010622	-19.343898	-132.210922
2.650000	-18.857188	-136.570612	-0.310750	134.561059	-0.310750	134.561059	-18.857224	-136.667791
2.700000	-18.408751	-141.049514	-0.322667	130.098280	-0.322667	130.098280	-18.408743	-141.139641
2.750000	-17.993312	-145.544274	-0.334803	125.621305	-0.334803	125.621305	-17.993261	-145.627783
2.800000	-17.606224	-150.056345	-0.347142	121.129032	-0.347142	121.129032	-17.606133	-150.133568
2.850000	-17.243297	-154.587367	-0.359687	116.620122	-0.359687	116.620122	-17.243167	-154.658559
2.900000	-16.900527	-159.138758	-0.372457	112.093366	-0.372457	112.093366	-16.900359	-159.204108
2.950000	-16.574194	-163.711992	-0.385488	107.547452	-0.385488	107.547452	-16.573991	-163.771638
3.000000	-16.260786	-168.308615	-0.398834	102.980945	-0.398834	102.980945	-16.260549	-168.362655
3.050000	-15.956940	-172.930193	-0.412570	98.392339	-0.412570	98.392339	-15.956670	-172.978694
3.100000	-15.659423	-177.578304	-0.426791	93.780056	-0.426791	93.780056	-15.659123	-177.621314
3.150000	-15.365074	177.745305	-0.441617	89.142298	-0.441617	89.142298	-15.364745	177.707752
3.200000	-15.070867	173.039022	-0.457190	84.477315	-0.457190	84.477315	-15.070510	173.006894
3.250000	-14.774006	168.301415	-0.473677	79.783456	-0.473677	79.783456	-14.773626	168.274679
3.300000	-14.471838	163.530912	-0.491272	75.058866	-0.491272	75.058866	-14.471436	163.509523
3.350000	-14.161917	158.725951	-0.510206	70.301625	-0.510206	70.301625	-14.161497	158.709848
3.400000	-13.842048	153.884988	-0.530742	65.509758	-0.530742	65.509758	-13.841613	153.874086
3.450000	-13.510256	149.006391	-0.553192	60.681139	-0.553192	60.681139	-13.509808	149.000577
3.500000	-13.164793	144.088422	-0.577923	55.813470	-0.577923	55.813470	-13.164337	144.087553
3.550000	-12.804671	139.129914	-0.605323	50.904980	-0.605323	50.904980	-12.804210	139.133814
3.600000	-12.429117	134.129432	-0.635853	45.953613	-0.635853	45.953613	-12.428655	134.137893
3.650000	-12.037797	129.085601	-0.670036	40.957371	-0.670036	40.957371	-12.037337	129.098382
3.700000	-11.630828	123.997130	-0.708465	35.914359	-0.708465	35.914359	-11.630372	124.013961
3.750000	-11.208779	118.862860	-0.751810	30.822851	-0.751810	30.822851	-11.208331	118.883447
3.800000	-10.772281	113.681302	-0.800889	25.680816	-0.800889	25.680816	-10.771844	113.705328
3.850000	-10.323166	108.452263	-0.856490	20.487664	-0.856490	20.487664	-10.322741	108.479400
3.900000	-9.863272	103.175427	-0.919537	15.242745	-0.919537	15.242745	-9.862861	103.205339
3.950000	-9.394782	97.850970	-0.991041	9.946001	-0.991041	9.946001	-9.394386	97.883321
4.000000	-8.920163	92.479703	-1.072091	4.598109	-1.072091	4.598109	-8.919783	92.514160
4.050000	-8.442110	87.063217	-1.163846	-0.799373	-1.163846	-0.799373	-8.441747	87.099458
4.100000	-7.963288	81.603724	-1.267617	-6.244205	-1.267617	-6.244205	-7.962942	81.641439
4.150000	-7.486844	76.105148	-1.384599	-11.732289	-1.384599	-11.732289	-7.486514	76.144047
4.200000	-7.015837	70.572479	-1.516006	-17.258400	-1.516006	-17.258400	-7.015524	70.612293
4.250000	-6.553201	65.011905	-1.663044	-22.816068	-1.663044	-22.816068	-6.552903	65.052387
4.300000	-6.101746	59.430967	-1.826845	-28.397421	-1.826845	-28.397421	-6.101464	59.471893
4.350000	-5.664097	53.838544	-2.008422	-33.993218	-2.008422	-33.993218	-5.663829	53.879715
4.400000	-5.242619	48.244823	-2.208701	-39.592904	-2.208701	-39.592904	-5.242365	48.286059
4.450000	-4.839441	42.661224	-2.428317	-45.184661	-2.428317	-45.184661	-4.839201	42.702371
4.500000	-4.456303	37.099843	-2.667582	-50.755993	-2.667582	-50.755993	-4.456075	37.140766
4.550000	-4.094533	31.573302	-2.926618	-56.293904	-2.926618	-56.293904	-4.094317	31.613887
4.600000	-3.755065	26.094416	-3.205264	-61.785220	-3.205264	-61.785220	-3.754861	26.134565
4.650000	-3.438436	20.675831	-3.503072	-67.216956	-3.503072	-67.216956	-3.438243	20.715464
4.700000	-3.144841	15.329894	-3.819332	-72.576447	-3.819332	-72.576447	-3.144657	15.368945
4.750000	-2.874173	10.068473	-4.153064	-77.851525	-4.153064	-77.851525	-2.873999	10.106887
4.800000	-2.625812	4.901074	-4.503007	-83.032405	-4.503007	-83.032405	-2.625646	4.938810
4.850000	-2.398977	-0.163552	-4.867788	-88.110073	-4.867788	-88.110073	-2.398820	-0.126526
4.900000	-2.192678	-5.118123	-5.245906	-93.077001	-5.245906	-93.077001	-2.192529	-5.081831
4.950000	-2.005771	-9.956888	-5.635776	-97.927197	-5.635776	-97.927197	-2.005629	-9.921346
5.000000	-1.837006	-14.675614	-6.035772	-102.656196	-6.035772	-102.656196	-1.836871	-14.640832
5.050000	-1.685240	-19.269944	-6.444105	-107.259394	-6.444105	-107.259394	-1.685112	-19.235926
5.100000	-1.548957	-23.740012	-6.859285	-111.736714	-6.859285	-111.736714	-1.548834	-23.706758
5.150000	-1.426839	-28.085628	-7.279784	-116.087742	-7.279784	-116.087742	-1.426722	-28.053135
5.200000	-1.317611	-32.307641	-7.704153	-120.313105	-7.704153	-120.313105	-1.317500	-32.275903
5.250000	-1.220057	-36.407780	-8.131037	-124.414307	-8.131037	-124.414307	-1.219951	-36.376786
5.300000	-1.133034	-40.388492	-8.559184	-128.393577	-8.559184	-128.393577	-1.132932	-40.358232
5.350000	-1.055478	-44.252798	-8.987444	-132.253716	-8.987444	-132.253716	-1.055381	-44.223258
5.400000	-0.986411	-48.004159	-9.414777	-135.997968	-9.414777	-135.997968	-0.986319	-47.975325
5.450000	-0.925000	-51.645337	-9.840016	-139.628852	-9.840016	-139.628852	-0.924911	-51.617193
5.500000	-0.870385	-55.180940	-10.262425	-143.150779	-10.262425	-143.150779	-0.870301	-55.153471
5.550000	-0.821804	-58.615622	-10.681375	-146.568220	-10.681375	-146.568220	-0.821724	-58.588811
5.600000	-0.778601	-61.953567	-11.096209	-149.885165	-11.096209	-149.885165	-0.778524	-61.927397
5.650000	-0.740189	-65.198955	-11.506348	-153.105611	-11.506348	-153.105611	-0.740116	-65.173409
5.700000	-0.706114	-68.354307	-11.910822	-156.231825	-11.910822	-156.231825	-0.706045	-68.329368
5.750000	-0.675864	-71.424613	-12.309406	-159.268673	-12.309406	-159.268673	-0.675798	-71.400264
5.800000	-0.648766	-74.420309	-12.703716	-162.226810	-12.703716	-162.226810	-0.648703	-74.396533
5.850000	-0.624988	-77.331652	-13.089228	-165.095578	-13.089228	-165.095578	-0.624928	-77.308431
5.900000	-0.603660	-80.176829	-13.470241	-167.893936	-13.470241	-167.893936	-0.603603	-80.154148
5.950000	-0.584931	-82.946990	-13.842444	-170.612115	-13.842444	-170.612115	-0.584877	-82.924833
6.000000	-0.568240	-85.654718	-14.208713	-173.263267	-14.208713	-173.263267	-0.568189	-85.633069
6.050000	-0.553520	-88.298232	-14.567137	-175.845175	-14.567137	-175.845175	-0.553471	-88.277076
6.100000	-0.540536	-90.881795	-14.917944	-178.362155	-14.917944	-178.362155	-0.540490	-90.861117
6.150000	-0.529050	-93.410562	-15.261862	179.180460	-15.261862	179.180460	-0.529006	-93.390348
6.200000	-0.519047	-95.881989	-15.596690	176.785689	-15.596690	176.785689	-0.519005	-95.862223
6.250000	-0.510186	-98.306793	-15.925537	174.442019	-15.925537	174.442019	-0.510147	-98.287464
6.300000	-0.502594	-100.676925	-16.244014	172.158482	-16.244014	172.158482	-0.502558	-100.658018
6.350000	-0.495931	-103.004959	-16.556252	169.921390	-16.556252	169.921390	-0.495897	-102.986462
6.400000	-0.490252	-105.286092	-16.859210	167.736167	-16.859210	167.736167	-0.490220	-105.267994
6.450000	-0.485385	-107.526642	-17.154621	165.595911	-17.154621	165.595911	-0.485355	-107.508930
6.500000	-0.481286	-109.727036	-17.441749	163.500197	-17.441749	163.500197	-0.481258	-109.709699
6.550000	-0.477899	-111.888446	-17.720183	161.447738	-17.720183	161.447738	-0.477874	-111.871473
6.600000	-0.475114	-114.015551	-17.991232	159.433316	-17.991232	159.433316	-0.475090	-113.998933
6.650000	-0.472957	-116.105326	-18.252594	157.460210	-18.252594	157.460210	-0.472935	-116.089051
6.700000	-0.471339	-118.161629	-18.505261	155.524022	-18.505261	155.524022	-0.471319	-118.145688
6.750000	-0.470177	-120.188600	-18.750501	153.620036	-18.750501	153.620036	-0.470159	-120.172985
6.800000	-0.469464	-122.185796	-18.987354	151.748551	-18.987354	151.748551	-0.469447	-122.170498
6.850000	-0.469163	-124.154632	-19.215805	149.907781	-19.215805	149.907781	-0.469148	-124.139642
6.900000	-0.469244	-126.096451	-19.435845	148.095982	-19.435845	148.095982	-0.469231	-126.081762
6.950000	-0.469677	-128.012539	-19.647468	146.311446	-19.647468	146.311446	-0.469666	-127.998143
7.000000	-0.470438	-129.904118	-19.850673	144.552499	-19.850673	144.552499	-0.470429	-129.890008
7.050000	-0.471503	-131.772359	-20.045462	142.817503	-20.045462	142.817503	-0.471495	-131.758528
7.100000	-0.472850	-133.618377	-20.231844	141.104848	-20.231844	141.104848	-0.472844	-133.604819
7.150000	-0.474461	-135.443243	-20.409828	139.412958	-20.409828	139.412958	-0.474457	-135.429951
7.200000	-0.476319	-137.247978	-20.579432	137.740283	-20.579432	137.740283	-0.476316	-137.234947
7.250000	-0.478407	-139.033563	-20.740676	136.085305	-20.740676	136.085305	-0.478406	-139.020786
7.300000	-0.480712	-140.800936	-20.893584	134.446535	-20.893584	134.446535	-0.480713	-140.788410
7.350000	-0.483220	-142.551002	-21.038186	132.822513	-21.038186	132.822513	-0.483223	-142.538721
7.400000	-0.485921	-144.284626	-21.174515	131.211811	-21.174515	131.211811	-0.485925	-144.272585
7.450000	-0.488803	-146.002641	-21.302609	129.613031	-21.302609	129.613031	-0.488809	-145.990836
7.500000	-0.491856	-147.705850	-21.422509	128.024807	-21.422509	128.024807	-0.491864	-147.694277
7.550000	-0.495079	-149.394452	-21.533854	126.446148	-21.533854	126.446148	-0.495089	-149.383108
7.600000	-0.498456	-151.069833	-21.637124	124.875303	-21.637124	124.875303	-0.498468	-151.058713
7.650000	-0.501981	-152.732709	-21.732371	123.311017	-21.732371	123.311017	-0.501994	-152.721810
7.700000	-0.505646	-154.383774	-21.819649	121.752072	-21.819649	121.752072	-0.505661	-154.373093
7.750000	-0.509445	-156.023699	-21.899019	120.197290	-21.899019	120.197290	-0.509463	-156.013234
7.800000	-0.513375	-157.653135	-21.970539	118.645535	-21.970539	118.645535	-0.513395	-157.642883
7.850000	-0.517429	-159.272713	-22.034274	117.095709	-22.034274	117.095709	-0.517451	-159.262672
7.900000	-0.521605	-160.883046	-22.090289	115.546761	-22.090289	115.546761	-0.521629	-160.873214
7.950000	-0.525898	-162.484731	-22.138651	113.997683	-22.138651	113.997683	-0.525924	-162.475108
8.000000	-0.530305	-164.078351	-22.179428	112.447509	-22.179428	112.447509	-0.530333	-164.068933
8.050000	-0.534823	-165.664471	-22.212688	110.895321	-22.212688	110.895321	-0.534854	-165.655259
8.100000	-0.539450	-167.243647	-22.238499	109.340247	-22.238499	109.340247	-0.539484	-167.234639
8.150000	-0.544185	-168.816420	-22.256929	107.781458	-22.256929	107.781458	-0.544222	-168.807616
8.200000	-0.549026	-170.383323	-22.268044	106.218174	-22.268044	106.218174	-0.549066	-170.374722
8.250000	-0.553973	-171.944877	-22.271908	104.649657	-22.271908	104.649657	-0.554015	-171.936479
8.300000	-0.559023	-173.501596	-22.268583	103.075215	-22.268583	103.075215	-0.559068	-173.493402
8.350000	-0.564184	-175.053778	-22.257716	101.493767	-22.257716	101.493767	-0.564232	-175.045788
8.400000	-0.569431	-176.602770	-22.241107	99.906587	-22.241107	99.906587	-0.569482	-176.594986
8.450000	-0.574816	-178.147430	-22.215250	98.309174	-22.215250	98.309174	-0.574870	-178.139853
8.500000	-0.580292	-179.689815	-22.183464	96.704585	-22.183464	96.704585	-0.580350	-179.682446
8.550000	-0.585861	178.769866	-22.145795	95.092614	-22.145795	95.092614	-0.585923	178.777025
8.600000	-0.591558	177.231791	-22.100086	93.470028	-22.100086	93.470028	-0.591623	177.238737
8.650000	-0.597379	175.695076	-22.046875	91.836899	-22.046875	91.836899	-0.597448	175.701805
8.700000	-0.603302	174.159060	-21.987853	90.195199	-21.987853	90.195199	-0.603374	174.165570
8.750000	-0.609327	172.623531	-21.923087	88.544761	-21.923087	88.544761	-0.609402	172.629819
8.800000	-0.615526	171.087840	-21.848522	86.879346	-21.848522	86.879346	-0.615606	171.093900
8.850000	-0.621841	169.551449	-21.768130	85.204390	-21.768130	85.204390	-0.621925	169.557276
8.900000	-0.628274	168.014136	-21.681970	83.519759	-21.681970	83.519759	-0.628362	168.019726
8.950000	-0.634864	166.475149	-21.588231	81.822513	-21.588231	81.822513	-0.634956	166.480495
9.000000	-0.641634	164.933498	-21.486098	80.111253	-21.486098	80.111253	-0.641731	164.938593
9.050000	-0.648547	163.389408	-21.378049	78.389445	-21.378049	78.389445	-0.648648	163.394244
9.100000	-0.655608	161.842632	-21.264163	76.656951	-21.264163	76.656951	-0.655713	161.847204
9.150000	-0.662913	160.290713	-21.140162	74.907382	-21.140162	74.907382	-0.663023	160.295008
9.200000	-0.670411	158.734340	-21.009246	73.145282	-21.009246	73.145282	-0.670526	158.738349
9.250000	-0.678096	157.173514	-20.872165	71.371464	-20.872165	71.371464	-0.678216	157.177228
9.300000	-0.686015	155.606900	-20.727380	69.583476	-20.727380	69.583476	-0.686140	155.610306
9.350000	-0.694254	154.031864	-20.572008	67.777188	-20.572008	67.777188	-0.694384	154.034947
9.400000	-0.702739	152.450228	-20.409925	65.957739	-20.409925	65.957739	-0.702875	152.452975
9.450000	-0.711483	150.861612	-20.241220	64.124844	-20.241220	64.124844	-0.711624	150.864011
9.500000	-0.720641	149.261521	-20.060912	62.271368	-20.060912	62.271368	-0.720788	149.263552
9.550000	-0.730187	147.650614	-19.871167	60.399923	-19.871167	60.399923	-0.730341	147.652258
9.600000	-0.740092	146.029759	-19.673930	58.512563	-19.673930	58.512563	-0.740253	146.030999
9.650000	-0.750414	144.397328	-19.468139	56.607194	-19.468139	56.607194	-0.750582	144.398146
9.700000	-0.761418	142.745854	-19.246950	54.673813	-19.246950	54.673813	-0.761595	142.746221
9.750000	-0.772815	141.083731	-19.020480	52.725315	-19.020480	52.725315	-0.773002	141.083631
9.800000	-0.784974	139.400777	-18.779525	50.747950	-18.779525	50.747950	-0.785171	139.400184
9.850000	-0.797884	137.697585	-18.526326	48.743422	-18.526326	48.743422	-0.798093	137.696472
9.900000	-0.811620	135.972462	-18.260911	46.710185	-18.260911	46.710185	-0.811845	135.970805
9.950000	-0.826397	134.220063	-17.980394	44.642034	-17.980394	44.642034	-0.826640	134.217837
10.000000	-0.842204	132.441213	-17.687479	42.540717	-17.687479	42.540717	-0.842467	132.438397
