! freq	dB(S11)	phase(S11)	dB(S12)	phase(S12)	
!     	dB(S21)	phase(S21)	dB(S22)	phase(S22)	
!S-par simulation data
#  GHz  S  DB  R 50
0.000000	-70.266033	0.000000	-0.002664	0.000000	-0.002664	0.000000	-70.266033	0.000000
0.050000	-41.426445	76.943163	-0.016478	-5.968630	-0.016478	-5.968630	-41.422784	76.986978
0.100000	-35.656454	73.536581	-0.026644	-11.861315	-0.026644	-11.861315	-35.652001	73.623118
0.150000	-32.232173	68.979388	-0.036665	-17.736350	-0.036665	-17.736350	-32.233542	69.131139
0.200000	-29.811394	63.870423	-0.046353	-23.597713	-0.046353	-23.597713	-29.812985	64.071027
0.250000	-27.956672	58.497006	-0.055645	-29.450837	-0.055645	-29.450837	-27.956122	58.731423
0.300000	-26.465337	52.997695	-0.064801	-35.299535	-0.064801	-35.299535	-26.462230	53.256235
0.350000	-25.230576	47.425838	-0.074045	-41.145092	-0.074045	-41.145092	-25.225199	47.702864
0.400000	-24.187720	41.810760	-0.083515	-46.987969	-0.083515	-46.987969	-24.180609	42.104149
0.450000	-23.295750	36.167504	-0.093268	-52.828208	-0.093268	-52.828208	-23.287447	36.477502
0.500000	-22.526423	30.504737	-0.103288	-58.665804	-0.103288	-58.665804	-22.517409	30.832806
0.550000	-21.859799	24.827373	-0.113520	-64.500806	-0.113520	-64.500806	-21.850499	25.175108
0.600000	-21.283075	19.137949	-0.123879	-70.333285	-0.123879	-70.333285	-21.273924	19.506096
0.650000	-20.782598	13.438956	-0.134263	-76.163651	-0.134263	-76.163651	-20.774012	13.826631
0.700000	-20.350421	7.731575	-0.144568	-81.992253	-0.144568	-81.992253	-20.342816	8.135761
0.750000	-19.983488	2.016309	-0.154669	-87.819445	-0.154669	-87.819445	-19.977257	2.431136
0.800000	-19.675757	-3.705459	-0.164456	-93.645849	-0.164456	-93.645849	-19.671135	-3.288225
0.850000	-19.425513	-9.432667	-0.173797	-99.472109	-0.173797	-99.472109	-19.422523	-9.023478
0.900000	-19.227799	-15.163685	-0.182620	-105.298905	-0.182620	-105.298905	-19.226253	-14.773356
0.950000	-19.082290	-20.897212	-0.190826	-111.126950	-0.190826	-111.126950	-19.081856	-20.537007
1.000000	-18.988418	-26.631797	-0.198348	-116.956995	-0.198348	-116.956995	-18.988711	-26.312816
1.050000	-18.946399	-32.366017	-0.205135	-122.789827	-0.205135	-122.789827	-18.947077	-32.099209
1.100000	-18.957228	-38.098487	-0.211162	-128.626271	-0.211162	-128.626271	-18.958054	-37.894966
1.150000	-19.022701	-43.827827	-0.216425	-134.467193	-0.216425	-134.467193	-19.023574	-43.699318
1.200000	-19.145495	-49.552575	-0.220944	-140.313502	-0.220944	-140.313502	-19.146449	-49.511901
1.250000	-19.329285	-55.271037	-0.224761	-146.166145	-0.224761	-146.166145	-19.330477	-55.332614
1.300000	-19.580308	-60.980837	-0.227922	-152.026273	-0.227922	-152.026273	-19.582007	-61.161619
1.350000	-19.903678	-66.679184	-0.230522	-157.894722	-0.230522	-157.894722	-19.906235	-66.998631
1.400000	-20.307703	-72.361956	-0.232656	-163.772449	-0.232656	-163.772449	-20.311558	-72.843237
1.450000	-20.803287	-78.023177	-0.234432	-169.660364	-0.234432	-169.660364	-20.808970	-78.694491
1.500000	-21.404944	-83.653970	-0.235971	-175.559307	-0.235971	-175.559307	-21.413111	-84.550561
1.550000	-22.132413	-89.240764	-0.237405	178.529973	-0.237405	178.529973	-22.143907	-90.408172
1.600000	-23.013346	-94.762048	-0.238875	172.606847	-0.238875	172.606847	-23.029323	-96.261604
1.650000	-24.088029	-100.181978	-0.240528	166.670815	-0.240528	166.670815	-24.110225	-102.100720
1.700000	-25.418321	-105.436574	-0.242515	160.721530	-0.242515	160.721530	-25.449630	-107.906695
1.750000	-27.106251	-110.399981	-0.244987	154.758805	-0.244987	154.758805	-27.152216	-113.641498
1.800000	-29.338225	-114.786915	-0.248092	148.782619	-0.248092	148.782619	-29.411627	-119.217110
1.850000	-32.512595	-117.790308	-0.251966	142.793116	-0.251966	142.793116	-32.652770	-124.378470
1.900000	-37.740242	-115.774089	-0.256746	136.790463	-0.256746	136.790463	-38.164752	-127.906928
1.950000	-47.444079	-60.580063	-0.262540	130.775131	-0.262540	130.775131	-54.904298	-70.332674
2.000000	-38.990402	14.239380	-0.269420	124.747839	-0.269420	124.747839	-39.437638	27.779813
2.050000	-32.910613	19.687722	-0.277438	118.709255	-0.277438	118.709255	-33.002505	25.360844
2.100000	-29.279468	17.325928	-0.286586	112.660331	-0.286586	112.660331	-29.320842	20.265772
2.150000	-26.717065	13.132130	-0.296901	106.601319	-0.296901	106.601319	-26.746307	14.572973
2.200000	-24.754898	8.277720	-0.308320	100.533040	-0.308320	100.533040	-24.781862	8.645314
2.250000	-23.181799	3.109523	-0.320772	94.455981	-0.320772	94.455981	-23.210316	2.585218
2.300000	-21.885964	-2.222848	-0.334175	88.370434	-0.334175	88.370434	-21.918067	-3.567063
2.350000	-20.798289	-7.638651	-0.348387	82.277103	-0.348387	82.277103	-20.835276	-9.790495
2.400000	-19.876552	-13.095945	-0.363311	76.176183	-0.363311	76.176183	-19.919590	-16.079832
2.450000	-19.093426	-18.564223	-0.378799	70.067902	-0.378799	70.067902	-19.143782	-22.436250
2.500000	-18.427831	-24.019901	-0.394592	63.952679	-0.394592	63.952679	-18.486882	-28.862547
2.550000	-17.865846	-29.443029	-0.410351	57.830143	-0.410351	57.830143	-17.935247	-35.367212
2.600000	-17.396107	-34.815638	-0.425711	51.699201	-0.425711	51.699201	-17.477819	-41.960709
2.650000	-17.010618	-40.119230	-0.440347	45.557912	-0.440347	45.557912	-17.107040	-48.658131
2.700000	-16.703394	-45.333566	-0.453990	39.403782	-0.453990	39.403782	-16.817481	-55.479060
2.750000	-16.471726	-50.431592	-0.466391	33.233404	-0.466391	33.233404	-16.607299	-62.453339
2.800000	-16.308994	-55.391145	-0.477457	27.044321	-0.477457	27.044321	-16.470545	-69.605378
2.850000	-16.213924	-60.175689	-0.487067	20.832590	-0.487067	20.832590	-16.407219	-76.978886
2.900000	-16.184177	-64.742844	-0.495190	14.594267	-0.495190	14.594267	-16.416475	-84.625483
2.950000	-16.216180	-69.046202	-0.501898	8.325777	-0.501898	8.325777	-16.496427	-92.602874
3.000000	-16.309350	-73.005873	-0.507267	2.021105	-0.507267	2.021105	-16.649254	-101.012763
3.050000	-16.457143	-76.546546	-0.511568	-4.323705	-0.511568	-4.323705	-16.870942	-109.955201
3.100000	-16.651327	-79.569266	-0.515146	-10.713484	-0.515146	-10.713484	-17.156183	-119.567693
3.150000	-16.878384	-81.956101	-0.518463	-17.153371	-0.518463	-17.153371	-17.493882	-130.025896
3.200000	-17.116148	-83.586125	-0.522115	-23.648184	-0.522115	-23.648184	-17.861885	-141.531658
3.250000	-17.331507	-84.363405	-0.526813	-30.202160	-0.526813	-30.202160	-18.221471	-154.281976
3.300000	-17.479121	-84.252585	-0.533391	-36.819447	-0.533391	-36.819447	-18.511821	-168.416231
3.350000	-17.505473	-83.345464	-0.542786	-43.503380	-0.542786	-43.503380	-18.651783	176.108266
3.400000	-17.354963	-81.899074	-0.556140	-50.258270	-0.556140	-50.258270	-18.550151	159.619261
3.450000	-16.997137	-80.359485	-0.574583	-57.085462	-0.574583	-57.085462	-18.154615	142.808412
3.500000	-16.436362	-79.214550	-0.599278	-63.985438	-0.599278	-63.985438	-17.476885	126.450118
3.550000	-15.699109	-78.913635	-0.631813	-70.961301	-0.631813	-70.961301	-16.571667	111.189370
3.600000	-14.846152	-79.675499	-0.673276	-78.009742	-0.673276	-78.009742	-15.537723	97.260458
3.650000	-13.928427	-81.584251	-0.725138	-85.129959	-0.725138	-85.129959	-14.449484	84.670605
3.700000	-12.990145	-84.587975	-0.788728	-92.318942	-0.788728	-92.318942	-13.362358	73.262128
3.750000	-12.061554	-88.586566	-0.865534	-99.573559	-0.865534	-99.573559	-12.308760	62.847954
3.800000	-11.163093	-93.447468	-0.956877	-106.888860	-0.956877	-106.888860	-11.307156	53.238230
3.850000	-10.306896	-99.038252	-1.063898	-114.258577	-1.063898	-114.258577	-10.366276	44.271131
3.900000	-9.498603	-105.253211	-1.187923	-121.676528	-1.187923	-121.676528	-9.488337	35.828992
3.950000	-8.740993	-111.985820	-1.329739	-129.134471	-1.329739	-129.134471	-8.673208	27.808554
4.000000	-8.033878	-119.159288	-1.490432	-136.624698	-1.490432	-136.624698	-7.918401	20.141607
4.050000	-7.376005	-126.704133	-1.670887	-144.138524	-1.670887	-144.138524	-7.220919	12.773128
4.100000	-6.765396	-134.560200	-1.871895	-151.666667	-1.871895	-151.666667	-6.577483	5.660945
4.150000	-6.199702	-142.674409	-2.094150	-159.199248	-2.094150	-159.199248	-5.984795	-1.227438
4.200000	-5.676584	-151.001127	-2.338441	-166.725540	-2.338441	-166.725540	-5.439851	-7.914796
4.250000	-5.193396	-159.492332	-2.604947	-174.234468	-2.604947	-174.234468	-4.939455	-14.424314
4.300000	-4.747750	-168.107701	-2.894066	178.285744	-2.894066	178.285744	-4.480839	-20.770282
4.350000	-4.337344	-176.807933	-3.205966	170.847440	-3.205966	170.847440	-4.061389	-26.964524
4.400000	-3.960102	174.444634	-3.540671	163.463835	-3.540671	163.463835	-3.678781	-33.015433
4.450000	-3.614010	165.686858	-3.897908	156.148354	-3.897908	156.148354	-3.330751	-38.930066
4.500000	-3.297072	156.953699	-4.277134	148.914040	-4.277134	148.914040	-3.015039	-44.714399
4.550000	-3.007482	148.278110	-4.677610	141.774084	-4.677610	141.774084	-2.729578	-50.372320
4.600000	-2.743920	139.693785	-5.098293	134.744120	-5.098293	134.744120	-2.472842	-55.903791
4.650000	-2.503986	131.224947	-5.537923	127.831308	-5.537923	127.831308	-2.242016	-61.316436
4.700000	-2.286378	122.898777	-5.995048	121.048510	-5.995048	121.048510	-2.035552	-66.609855
4.750000	-2.089511	114.737722	-6.467995	114.405222	-6.467995	114.405222	-1.851563	-71.785918
4.800000	-1.911833	106.760905	-6.954937	107.909374	-6.954937	107.909374	-1.688197	-76.846619
4.850000	-1.751835	98.984026	-7.453935	101.567209	-7.453935	101.567209	-1.543651	-81.794230
4.900000	-1.608047	91.419375	-7.962988	95.383217	-7.962988	95.383217	-1.416181	-86.631404
4.950000	-1.479057	84.075948	-8.480081	89.360165	-8.480081	89.360165	-1.304117	-91.361216
5.000000	-1.363514	76.959657	-9.003231	83.499182	-9.003231	83.499182	-1.205878	-95.987174
5.050000	-1.260440	70.080662	-9.529602	77.804775	-9.529602	77.804775	-1.120291	-100.510269
5.100000	-1.168032	63.426016	-10.059060	72.265784	-10.059060	72.265784	-1.045348	-104.940486
5.150000	-1.085653	57.005363	-10.588431	66.887106	-10.588431	66.887106	-0.980276	-109.277717
5.200000	-1.011999	50.808282	-11.117128	61.660094	-11.117128	61.660094	-0.923643	-113.529484
5.250000	-0.946247	44.832736	-11.643335	56.582113	-11.643335	56.582113	-0.874523	-117.699483
5.300000	-0.887575	39.073927	-12.165562	51.648822	-12.165562	51.648822	-0.832012	-121.792180
5.350000	-0.835112	33.521196	-12.683326	46.852194	-12.683326	46.852194	-0.795181	-125.813686
5.400000	-0.788469	28.178935	-13.193453	42.194262	-13.193453	42.194262	-0.763569	-129.764832
5.450000	-0.746663	23.024743	-13.697690	37.659602	-13.697690	37.659602	-0.736193	-133.654984
5.500000	-0.709084	18.046572	-14.196224	33.239795	-14.196224	33.239795	-0.712436	-137.489645
5.550000	-0.675466	13.245453	-14.686673	28.935037	-14.686673	28.935037	-0.691997	-141.270067
5.600000	-0.645610	8.625156	-15.165839	24.747327	-15.165839	24.747327	-0.674629	-144.996762
5.650000	-0.618730	4.157203	-15.637629	20.657917	-15.637629	20.657917	-0.659614	-148.679535
5.700000	-0.594529	-0.165335	-16.101635	16.662122	-16.101635	16.662122	-0.646664	-152.321492
5.750000	-0.573016	-4.332295	-16.553409	12.766296	-16.553409	12.766296	-0.635722	-155.921066
5.800000	-0.553739	-8.361994	-16.995164	8.958567	-16.995164	8.958567	-0.626390	-159.484362
5.850000	-0.536378	-12.267680	-17.428284	5.230406	-17.428284	5.230406	-0.618388	-163.015789
5.900000	-0.520793	-16.052449	-17.851791	1.579860	-17.851791	1.579860	-0.611575	-166.516976
5.950000	-0.506997	-19.708642	-18.261826	-1.988040	-18.261826	-1.988040	-0.605904	-169.986951
6.000000	-0.494598	-23.259520	-18.662746	-5.488085	-18.662746	-5.488085	-0.601080	-173.432101
6.050000	-0.483472	-26.710186	-19.054396	-8.923370	-19.054396	-8.923370	-0.596990	-176.854212
6.100000	-0.473618	-30.056223	-19.433980	-12.290757	-19.433980	-12.290757	-0.593591	179.747100
6.150000	-0.464891	-33.305618	-19.802148	-15.595089	-19.802148	-15.595089	-0.590761	176.369493
6.200000	-0.457119	-36.469929	-20.160797	-18.843568	-20.160797	-18.843568	-0.588377	173.010021
6.250000	-0.450226	-39.553240	-20.509810	-22.038529	-20.509810	-22.038529	-0.586372	169.667482
6.300000	-0.444279	-42.546249	-20.844986	-25.173323	-20.844986	-25.173323	-0.584732	166.343456
6.350000	-0.439064	-45.466881	-21.170441	-28.259445	-21.170441	-28.259445	-0.583342	163.034033
6.400000	-0.434528	-48.318557	-21.486056	-31.298797	-21.486056	-31.298797	-0.582154	159.738382
6.450000	-0.430668	-51.099728	-21.790141	-34.289865	-21.790141	-34.289865	-0.581135	156.456719
6.500000	-0.427446	-53.812514	-22.082144	-37.233612	-22.082144	-37.233612	-0.580244	153.188603
6.550000	-0.424760	-56.466446	-22.364062	-40.136220	-22.364062	-40.136220	-0.579432	149.932194
6.600000	-0.422718	-59.047915	-22.630107	-42.987610	-22.630107	-42.987610	-0.578677	146.690397
6.650000	-0.420961	-61.596899	-22.892982	-45.815850	-22.892982	-45.815850	-0.577932	143.455269
6.700000	-0.419791	-64.077833	-23.139260	-48.595321	-23.139260	-48.595321	-0.577188	140.234318
6.750000	-0.419030	-66.510415	-23.374831	-51.339776	-23.374831	-51.339776	-0.576411	137.023944
6.800000	-0.418551	-68.909518	-23.604262	-54.059966	-23.604262	-54.059966	-0.575607	133.820958
6.850000	-0.418629	-71.241603	-23.813983	-56.731322	-23.813983	-56.731322	-0.574713	130.633619
6.900000	-0.418980	-73.540655	-24.015822	-59.378595	-24.015822	-59.378595	-0.573752	127.454638
6.950000	-0.419602	-75.806673	-24.209098	-62.001784	-24.209098	-62.001784	-0.572726	124.284014
7.000000	-0.420694	-78.015450	-24.382987	-64.583508	-24.382987	-64.583508	-0.571554	121.129297
7.050000	-0.421991	-80.199255	-24.549737	-67.147371	-24.549737	-67.147371	-0.570307	117.982167
7.100000	-0.423579	-82.347803	-24.704349	-69.686069	-24.704349	-69.686069	-0.568953	114.845915
7.150000	-0.425520	-84.454026	-24.842562	-72.195296	-24.842562	-72.195296	-0.567451	111.724289
7.200000	-0.427620	-86.541350	-24.974203	-74.691545	-24.974203	-74.691545	-0.565881	108.609522
7.250000	-0.430046	-88.590472	-25.089456	-77.162170	-25.089456	-77.162170	-0.564166	105.509685
7.300000	-0.432710	-90.612133	-25.192455	-79.615026	-25.192455	-79.615026	-0.562342	102.421626
7.350000	-0.435630	-92.605105	-25.281647	-82.050016	-25.281647	-82.050016	-0.560402	99.346918
7.400000	-0.438792	-94.571591	-25.357211	-84.469266	-25.357211	-84.469266	-0.558356	96.285619
7.450000	-0.442176	-96.514803	-25.419997	-86.875404	-25.419997	-86.875404	-0.556217	93.237107
7.500000	-0.445776	-98.435928	-25.469823	-89.269806	-25.469823	-89.269806	-0.553993	90.201684
7.550000	-0.449619	-100.333389	-25.504665	-91.652558	-25.504665	-91.652558	-0.551686	87.181511
7.600000	-0.453684	-102.210426	-25.525489	-94.026223	-25.525489	-94.026223	-0.549313	84.175753
7.650000	-0.457970	-104.068288	-25.532066	-96.392289	-25.532066	-96.392289	-0.546890	81.184702
7.700000	-0.462477	-105.908205	-25.524149	-98.752223	-25.524149	-98.752223	-0.544431	78.208621
7.750000	-0.467207	-107.731395	-25.501470	-101.107478	-25.501470	-101.107478	-0.541954	75.247736
7.800000	-0.472162	-109.539064	-25.463735	-103.459493	-25.463735	-103.459493	-0.539477	72.302225
7.850000	-0.477346	-111.332418	-25.410625	-105.809710	-25.410625	-105.809710	-0.537021	69.372215
7.900000	-0.482766	-113.112671	-25.341784	-108.159576	-25.341784	-108.159576	-0.534607	66.457771
7.950000	-0.488430	-114.881046	-25.256823	-110.510562	-25.256823	-110.510562	-0.532261	63.558889
8.000000	-0.494348	-116.638790	-25.155308	-112.864175	-25.155308	-112.864175	-0.530008	60.675482
8.050000	-0.500532	-118.387184	-25.036761	-115.221975	-25.036761	-115.221975	-0.527879	57.807373
8.100000	-0.506999	-120.127550	-24.900648	-117.585601	-24.900648	-117.585601	-0.525906	54.954277
8.150000	-0.513768	-121.861269	-24.746376	-119.956796	-24.746376	-119.956796	-0.524124	52.115792
8.200000	-0.520865	-123.589794	-24.573283	-122.337432	-24.573283	-122.337432	-0.522577	49.291376
8.250000	-0.528317	-125.314670	-24.380630	-124.729555	-24.380630	-124.729555	-0.521308	46.480332
8.300000	-0.536164	-127.037557	-24.167592	-127.135425	-24.167592	-127.135425	-0.520373	43.681777
8.350000	-0.544449	-128.760257	-23.933240	-129.557570	-23.933240	-129.557570	-0.519832	40.894615
8.400000	-0.553229	-130.484748	-23.676536	-131.998856	-23.676536	-131.998856	-0.519758	38.117501
8.450000	-0.562573	-132.213226	-23.396308	-134.462563	-23.396308	-134.462563	-0.520239	35.348793
8.500000	-0.572571	-133.948158	-23.091232	-136.952494	-23.091232	-136.952494	-0.521379	32.586495
8.550000	-0.583331	-135.692346	-22.759809	-139.473103	-22.759809	-139.473103	-0.523306	29.828184
8.600000	-0.594995	-137.449015	-22.400338	-142.029659	-22.400338	-142.029659	-0.526180	27.070915
8.650000	-0.607743	-139.221917	-22.010874	-144.628469	-22.010874	-144.628469	-0.530202	24.311105
8.700000	-0.621809	-141.015478	-21.589193	-147.277153	-21.589193	-147.277153	-0.535628	21.544369
8.750000	-0.637501	-142.834980	-21.132733	-149.985027	-21.132733	-149.985027	-0.542791	18.765316
8.800000	-0.655455	-144.690369	-20.632226	-152.771103	-20.632226	-152.771103	-0.552377	15.964776
8.850000	-0.675966	-146.585168	-20.092849	-155.640458	-20.092849	-155.640458	-0.564696	13.136962
8.900000	-0.699736	-148.528230	-19.511410	-158.609787	-19.511410	-158.609787	-0.580493	10.272277
8.950000	-0.728148	-150.536203	-18.876520	-161.711704	-18.876520	-161.711704	-0.601241	7.353694
9.000000	-0.763071	-152.628488	-18.178861	-164.984613	-18.178861	-164.984613	-0.628923	4.360136
9.050000	-0.806219	-154.817856	-17.422377	-168.454444	-17.422377	-168.454444	-0.665347	1.275510
9.100000	-0.860755	-157.128942	-16.600780	-172.172880	-16.600780	-172.172880	-0.713866	-1.928001
9.150000	-0.934926	-159.623918	-15.678878	-176.273825	-15.678878	-176.273825	-0.783259	-5.318289
9.200000	-1.036230	-162.334598	-14.665172	179.161952	-14.665172	179.161952	-0.881510	-8.935132
9.250000	-1.176698	-165.305915	-13.562289	174.011209	-13.562289	174.011209	-1.021495	-12.833363
9.300000	-1.389410	-168.658533	-12.326151	167.927022	-12.326151	167.927022	-1.238800	-17.156285
9.350000	-1.726087	-172.466656	-10.956164	160.514546	-10.956164	160.514546	-1.589750	-22.010837
9.400000	-2.281750	-176.701882	-9.474119	151.204639	-9.474119	151.204639	-2.179900	-27.419591
9.450000	-3.257257	179.145200	-7.936024	139.030857	-7.936024	139.030857	-3.241334	-32.954795
9.500000	-4.932818	177.624952	-6.545266	123.085589	-6.545266	123.085589	-5.146401	-35.987757
9.550000	-7.079457	-173.832102	-5.667453	103.392540	-5.667453	103.392540	-7.828818	-27.323710
9.600000	-7.204861	-153.936971	-5.666862	82.281387	-5.666862	82.281387	-8.048471	-2.776652
9.650000	-5.255338	-144.545553	-6.474058	63.436965	-6.474058	63.436965	-5.588288	7.642409
9.700000	-3.671488	-145.092565	-7.684963	48.542593	-7.684963	48.542593	-3.735721	6.035770
9.750000	-2.724410	-148.441940	-8.967566	37.215951	-8.967566	37.215951	-2.667478	1.574968
9.800000	-2.160809	-152.122669	-10.173961	28.406716	-10.173961	28.406716	-2.040292	-3.057123
9.850000	-1.813812	-155.567544	-11.254723	21.329028	-11.254723	21.329028	-1.655331	-7.319514
9.900000	-1.591481	-158.690975	-12.202013	15.435709	-12.202013	15.435709	-1.407879	-11.161927
9.950000	-1.443922	-161.531462	-13.024654	10.362474	-13.024654	10.362474	-1.242285	-14.647498
10.000000	-1.339244	-164.170682	-13.755718	5.812441	-13.755718	5.812441	-1.123428	-17.879630
