! freq	dB(S11)	phase(S11)	dB(S12)	phase(S12)	
!     	dB(S21)	phase(S21)	dB(S22)	phase(S22)	
!S-par simulation data
#  GHz  S  DB  R 50
0.000000	-79.171750	0.000000	-0.000956	0.000000	-0.000956	0.000000	-79.171750	0.000000
0.050000	-22.275353	-100.142991	-0.040112	-9.959244	-0.040112	-9.959244	-22.275416	-100.142056
0.100000	-16.496702	-110.043467	-0.130609	-19.680322	-0.130609	-19.680322	-16.496675	-110.042243
0.150000	-13.306566	-119.580672	-0.253369	-29.158158	-0.253369	-29.158158	-13.306544	-119.578769
0.200000	-11.217036	-128.800359	-0.397491	-38.363273	-0.397491	-38.363273	-11.217016	-128.797646
0.250000	-9.760823	-137.702252	-0.551549	-47.264221	-0.551549	-47.264221	-9.760798	-137.698741
0.300000	-8.726402	-146.296741	-0.702840	-55.874302	-0.702840	-55.874302	-8.726373	-146.292403
0.350000	-8.002320	-154.611346	-0.837433	-64.219680	-0.837433	-64.219680	-8.002288	-154.606092
0.400000	-7.511989	-162.705710	-0.946192	-72.357281	-0.946192	-72.357281	-7.511954	-162.699414
0.450000	-7.214842	-170.637637	-1.022290	-80.345485	-1.022290	-80.345485	-7.214801	-170.630140
0.500000	-7.093986	-178.468949	-1.059973	-88.248668	-1.059973	-88.248668	-7.093936	-178.460040
0.550000	-7.136836	173.728082	-1.058259	-96.142069	-1.058259	-96.142069	-7.136774	173.738681
0.600000	-7.337810	165.892357	-1.019949	-104.089973	-1.019949	-104.089973	-7.337734	165.905002
0.650000	-7.726838	157.957556	-0.945130	-112.167889	-0.945130	-112.167889	-7.726743	157.972802
0.700000	-8.328122	149.874815	-0.841335	-120.435124	-0.841335	-120.435124	-8.328000	149.893456
0.750000	-9.199722	141.606744	-0.716656	-128.950902	-0.716656	-128.950902	-9.199559	141.630054
0.800000	-10.423073	133.159191	-0.582777	-137.745670	-0.582777	-137.745670	-10.422838	133.189237
0.850000	-12.151358	124.595655	-0.452536	-146.837607	-0.452536	-146.837607	-12.150987	124.636275
0.900000	-14.682482	116.141106	-0.340203	-156.216563	-0.340203	-156.216563	-14.681791	116.200778
0.950000	-18.733258	108.571584	-0.258596	-165.831644	-0.258596	-165.831644	-18.731506	108.674308
1.000000	-27.266720	108.517790	-0.218860	-175.610232	-0.218860	-175.610232	-27.254274	108.813294
1.050000	-29.204973	-115.650946	-0.226822	174.548726	-0.226822	174.548726	-29.186594	-116.048482
1.100000	-19.434731	-111.327963	-0.281845	164.752513	-0.281845	164.752513	-19.433264	-111.459079
1.150000	-15.110398	-118.629096	-0.379064	155.104046	-0.379064	155.104046	-15.109977	-118.711295
1.200000	-12.466245	-127.016491	-0.507029	145.678428	-0.507029	145.678428	-12.466085	-127.078325
1.250000	-10.674166	-135.557424	-0.652348	136.519202	-0.652348	136.519202	-10.674107	-135.608316
1.300000	-9.419799	-143.997466	-0.800795	127.648375	-0.800795	127.648375	-9.419789	-144.041810
1.350000	-8.533252	-152.265050	-0.939047	119.040216	-0.939047	119.040216	-8.533274	-152.305157
1.400000	-7.925216	-160.355394	-1.055887	110.656448	-1.055887	110.656448	-7.925261	-160.392717
1.450000	-7.549410	-168.294916	-1.140980	102.444244	-1.140980	102.444244	-7.549475	-168.330496
1.500000	-7.362788	-176.143752	-1.190244	94.323876	-1.190244	94.323876	-7.362871	-176.178337
1.550000	-7.350211	176.044047	-1.201072	86.228657	-1.201072	86.228657	-7.350311	176.009807
1.600000	-7.527622	168.206176	-1.169678	78.080466	-1.169678	78.080466	-7.527741	168.171590
1.650000	-7.900888	160.284203	-1.101314	69.803307	-1.101314	69.803307	-7.901026	160.248536
1.700000	-8.494584	152.242474	-1.002753	61.339288	-1.002753	61.339288	-8.494749	152.204846
1.750000	-9.384866	144.051984	-0.880431	52.607451	-0.880431	52.607451	-9.385072	144.011032
1.800000	-10.659722	135.757491	-0.747611	43.574272	-0.747611	43.574272	-10.660004	135.711130
1.850000	-12.503118	127.524168	-0.618691	34.210480	-0.618691	34.210480	-12.503572	127.468432
1.900000	-15.265391	119.865895	-0.509273	24.536847	-0.509273	24.536847	-15.266321	119.792092
1.950000	-19.882831	114.794144	-0.433944	14.603013	-0.433944	14.603013	-19.885780	114.675581
2.000000	-30.100127	138.688157	-0.405479	4.491944	-0.405479	4.491944	-30.136340	138.434203
2.050000	-24.666334	-116.565072	-0.428529	-5.678377	-0.428529	-5.678377	-24.676628	-116.392428
2.100000	-17.581250	-114.670995	-0.502497	-15.787790	-0.502497	-15.787790	-17.583210	-114.598428
2.150000	-13.890407	-121.371389	-0.619484	-25.725807	-0.619484	-25.725807	-13.891216	-121.328326
2.200000	-11.547967	-129.467484	-0.765619	-35.414458	-0.765619	-35.414458	-11.548413	-129.438148
2.250000	-9.955351	-137.866662	-0.924581	-44.810772	-0.924581	-44.810772	-9.955643	-137.845049
2.300000	-8.848986	-146.243221	-1.079447	-53.918773	-1.079447	-53.918773	-8.849200	-146.226456
2.350000	-8.101072	-154.495096	-1.214088	-62.766585	-1.214088	-62.766585	-8.101241	-154.481493
2.400000	-7.626690	-162.620475	-1.316772	-71.425588	-1.316772	-71.425588	-7.626828	-162.608987
2.450000	-7.385535	-170.656434	-1.378433	-79.975158	-1.378433	-79.975158	-7.385647	-170.646300
2.500000	-7.361108	-178.661801	-1.393548	-88.508373	-1.393548	-88.508373	-7.361193	-178.652400
2.550000	-7.569665	173.292067	-1.358110	-97.136272	-1.358110	-97.136272	-7.569717	173.301345
2.600000	-8.024330	165.148474	-1.278270	-105.958460	-1.278270	-105.958460	-8.024337	165.158267
2.650000	-8.802246	156.870733	-1.159259	-115.097053	-1.159259	-115.097053	-8.802186	156.881957
2.700000	-10.010757	148.513882	-1.015777	-124.640422	-1.015777	-124.640422	-10.010584	148.527971
2.750000	-11.875976	140.352168	-0.866962	-134.668402	-0.866962	-134.668402	-11.875569	140.371959
2.800000	-14.865448	133.372287	-0.737331	-145.199186	-0.737331	-145.199186	-14.864392	133.404529
2.850000	-20.328715	132.755516	-0.654232	-156.197869	-0.654232	-156.197869	-20.324316	132.823686
2.900000	-28.987647	-160.770773	-0.641330	-167.538710	-0.641330	-167.538710	-28.953160	-160.812279
2.950000	-19.132700	-108.536247	-0.714788	-179.031118	-0.714788	-179.031118	-19.129276	-108.626313
3.000000	-13.792428	-110.646569	-0.870829	169.546406	-0.870829	169.546406	-13.791682	-110.704423
3.050000	-10.702274	-118.447160	-1.097382	158.400573	-1.097382	158.400573	-10.702109	-118.494329
3.100000	-8.705868	-127.323671	-1.365557	147.669042	-1.365557	147.669042	-8.705941	-127.366748
3.150000	-7.371273	-136.314403	-1.641232	137.397330	-1.641232	137.397330	-7.371487	-136.356529
3.200000	-6.496713	-145.135023	-1.889186	127.547768	-1.889186	127.547768	-6.497039	-145.178334
3.250000	-5.958386	-153.756327	-2.082036	117.983457	-2.082036	117.983457	-5.958829	-153.802635
3.300000	-5.728124	-162.242241	-2.188666	108.528492	-2.188666	108.528492	-5.728722	-162.293776
3.350000	-5.785668	-170.736258	-2.196578	98.923955	-2.196578	98.923955	-5.786503	-170.795860
3.400000	-6.200647	-179.391312	-2.092731	88.832434	-2.092731	88.832434	-6.201900	-179.463606
3.450000	-7.138504	171.724491	-1.882761	77.809268	-1.882761	77.809268	-7.140618	171.630939
3.500000	-8.996964	163.096261	-1.603619	65.298400	-1.603619	65.298400	-9.001344	162.962152
3.550000	-12.824628	158.353704	-1.347521	50.736968	-1.347521	50.736968	-12.838498	158.124292
3.600000	-20.311675	-164.015331	-1.291473	33.777577	-1.291473	33.777577	-20.408532	-164.169699
3.650000	-12.912302	-104.189611	-1.666643	15.000914	-1.666643	15.000914	-12.931670	-103.917330
3.700000	-7.169635	-109.790493	-2.613201	-3.861697	-2.613201	-3.861697	-7.174584	-109.639901
3.750000	-4.255437	-122.274751	-4.047107	-20.895551	-4.047107	-20.895551	-4.257609	-122.172837
3.800000	-2.696164	-134.204690	-5.743678	-35.138400	-5.743678	-35.138400	-2.697351	-134.127198
3.850000	-1.812070	-144.427320	-7.519303	-46.814466	-7.519303	-46.814466	-1.812806	-144.364751
3.900000	-1.302341	-152.913914	-9.240016	-56.299044	-9.240016	-56.299044	-1.302856	-152.861116
3.950000	-0.987977	-160.074209	-10.871290	-64.212065	-10.871290	-64.212065	-0.988371	-160.028341
4.000000	-0.787419	-166.197865	-12.385605	-70.932191	-12.385605	-70.932191	-0.787740	-166.157092
4.050000	-0.654659	-171.531969	-13.777360	-76.758722	-13.777360	-76.758722	-0.654930	-171.495072
4.100000	-0.561429	-176.300825	-15.073310	-81.951752	-15.073310	-81.951752	-0.561661	-176.267012
4.150000	-0.494204	179.373355	-16.278716	-86.650946	-16.278716	-86.650946	-0.494403	179.404663
4.200000	-0.444606	175.399497	-17.399309	-90.958835	-17.399309	-90.958835	-0.444778	175.428733
4.250000	-0.408103	171.730868	-18.422557	-94.927270	-18.422557	-94.927270	-0.408251	171.758390
4.300000	-0.380385	168.298109	-19.364069	-98.632451	-19.364069	-98.632451	-0.380513	168.324186
4.350000	-0.358659	165.046376	-20.241022	-102.134298	-20.241022	-102.134298	-0.358770	165.071211
4.400000	-0.341568	161.949515	-21.053317	-105.460665	-21.053317	-105.460665	-0.341664	161.973278
4.450000	-0.328022	158.982417	-21.804577	-108.638315	-21.804577	-108.638315	-0.328107	159.005254
4.500000	-0.317238	156.124731	-22.497912	-111.688842	-22.497912	-111.688842	-0.317315	156.146763
4.550000	-0.308645	153.359731	-23.135980	-114.629982	-23.135980	-114.629982	-0.308716	153.381064
4.600000	-0.301863	150.675631	-23.718271	-117.473944	-23.718271	-117.473944	-0.301931	150.696360
4.650000	-0.296659	148.064849	-24.240290	-120.227980	-24.240290	-120.227980	-0.296724	148.085060
4.700000	-0.292793	145.517536	-24.701659	-122.902625	-24.701659	-122.902625	-0.292858	145.537306
4.750000	-0.289514	142.997688	-25.144441	-125.542019	-25.144441	-125.542019	-0.289580	143.017053
4.800000	-0.287291	140.527276	-25.527160	-128.117963	-25.527160	-128.117963	-0.287359	140.546300
4.850000	-0.285804	138.088516	-25.865643	-130.652194	-25.865643	-130.652194	-0.285874	138.107240
4.900000	-0.284869	135.673494	-26.169826	-133.155140	-26.169826	-133.155140	-0.284942	135.691952
4.950000	-0.284771	133.288057	-26.409778	-135.618529	-26.409778	-135.618529	-0.284847	133.306292
5.000000	-0.284902	130.910688	-26.635544	-138.071130	-26.635544	-138.071130	-0.284980	130.928713
5.050000	-0.285966	128.555767	-26.780649	-140.494133	-26.780649	-140.494133	-0.286047	128.573619
5.100000	-0.287215	126.202744	-26.911146	-142.914986	-26.911146	-142.914986	-0.287299	126.220429
5.150000	-0.289145	123.856683	-26.980362	-145.327957	-26.980362	-145.327957	-0.289231	123.874221
5.200000	-0.291441	121.508986	-27.016979	-147.744730	-27.016979	-147.744730	-0.291529	121.526380
5.250000	-0.294224	119.159107	-27.009553	-150.166570	-27.009553	-150.166570	-0.294314	119.176363
5.300000	-0.297578	116.798803	-26.952066	-152.606112	-26.952066	-152.606112	-0.297669	116.815918
5.350000	-0.301250	114.432708	-26.867448	-155.055487	-26.867448	-155.055487	-0.301342	114.449682
5.400000	-0.305759	112.041805	-26.713966	-157.544665	-26.713966	-157.544665	-0.305852	112.058622
5.450000	-0.310491	109.643719	-26.545372	-160.045205	-26.545372	-160.045205	-0.310585	109.660374
5.500000	-0.316274	107.206003	-26.298570	-162.607221	-26.298570	-162.607221	-0.316369	107.222466
5.550000	-0.322454	104.751637	-26.029818	-165.194315	-26.029818	-165.194315	-0.322550	104.767893
5.600000	-0.329620	102.255645	-25.699730	-167.844102	-25.699730	-167.844102	-0.329718	102.271657
5.650000	-0.337671	99.721196	-25.323945	-170.550176	-25.323945	-170.550176	-0.337771	99.736928
5.700000	-0.346610	97.148292	-24.908667	-173.312535	-24.908667	-173.312535	-0.346713	97.163707
5.750000	-0.357249	94.503720	-24.415805	-176.176954	-24.415805	-176.176954	-0.357357	94.518741
5.800000	-0.368578	91.830480	-23.913097	-179.082198	-23.913097	-179.082198	-0.368693	91.845078
5.850000	-0.383048	89.035288	-23.288905	177.843145	-23.288905	177.843145	-0.383172	89.049319
5.900000	-0.398508	86.205770	-22.666247	174.721506	-22.666247	174.721506	-0.398644	86.219192
5.950000	-0.418354	83.226588	-21.920383	171.396168	-21.920383	171.396168	-0.418508	83.239207
6.000000	-0.441180	80.162202	-21.142085	167.956521	-21.142085	167.956521	-0.441356	80.173895
6.050000	-0.469362	76.944448	-20.278303	164.311121	-20.278303	164.311121	-0.469568	76.954994
6.100000	-0.503151	73.590952	-19.366383	160.484788	-19.366383	160.484788	-0.503394	73.600135
6.150000	-0.547735	69.997671	-18.336398	156.339036	-18.336398	156.339036	-0.548032	70.005095
6.200000	-0.606241	66.142270	-17.209432	151.843657	-17.209432	151.843657	-0.606610	66.147464
6.250000	-0.685476	61.953220	-15.974978	146.900923	-15.974978	146.900923	-0.685947	61.955543
6.300000	-0.800101	57.291082	-14.595683	141.316899	-14.595683	141.316899	-0.800722	57.289540
6.350000	-0.970563	52.029509	-13.077052	134.904290	-13.077052	134.904290	-0.971410	52.022706
6.400000	-1.237908	45.954813	-11.407023	127.330136	-11.407023	127.330136	-1.239118	45.940589
6.450000	-1.683731	38.780036	-9.583617	118.083935	-9.583617	118.083935	-1.685569	38.754846
6.500000	-2.502944	30.152670	-7.616464	106.261584	-7.616464	106.261584	-2.506047	30.109777
6.550000	-4.075963	20.386268	-5.653936	90.972206	-5.653936	90.972206	-4.082059	20.313095
6.600000	-7.306486	13.340252	-3.982505	71.310366	-3.982505	71.310366	-7.322617	13.212398
6.650000	-12.559619	31.890924	-3.045285	48.521815	-3.045285	48.521815	-12.615209	31.827786
6.700000	-10.583241	75.069098	-3.023479	26.262463	-3.023479	26.262463	-10.611372	75.330227
6.750000	-6.722468	78.461337	-3.587855	7.535967	-3.587855	7.535967	-6.730049	78.658749
6.800000	-4.761546	71.769045	-4.312632	-7.271416	-4.312632	-7.271416	-4.764395	71.923491
6.850000	-3.741740	64.109988	-4.965072	-19.318243	-4.965072	-19.318243	-3.742893	64.241345
6.900000	-3.214017	56.777161	-5.452909	-29.498707	-5.452909	-29.498707	-3.214386	56.895675
6.950000	-2.960696	49.845840	-5.756734	-38.585942	-5.756734	-38.585942	-2.960608	49.956996
7.000000	-2.882596	43.152009	-5.886843	-47.116514	-5.886843	-47.116514	-2.882177	43.259135
7.050000	-2.942282	36.529280	-5.855723	-55.450878	-5.855723	-55.450878	-2.941574	36.634748
7.100000	-3.134841	29.827866	-5.676011	-63.880294	-5.676011	-63.880294	-3.133832	29.933635
7.150000	-3.482226	22.917409	-5.361604	-72.680731	-5.361604	-72.680731	-3.480853	23.025367
7.200000	-4.015748	15.743994	-4.943239	-82.053634	-4.943239	-82.053634	-4.013884	15.856054
7.250000	-4.835227	8.320428	-4.440022	-92.309051	-4.440022	-92.309051	-4.832612	8.439251
7.300000	-6.047203	0.947468	-3.903079	-103.554722	-3.903079	-103.554722	-6.043337	1.076409
7.350000	-7.902719	-5.390630	-3.384758	-116.024221	-3.384758	-116.024221	-7.896388	-5.246211
7.400000	-10.743446	-7.379113	-2.964124	-129.691028	-2.964124	-129.691028	-10.731177	-7.214158
7.450000	-14.547678	5.530675	-2.716765	-144.256538	-2.716765	-144.256538	-14.520128	5.676529
7.500000	-15.382006	42.525576	-2.690524	-159.185533	-2.690524	-159.185533	-15.353028	42.494247
7.550000	-11.755783	61.180812	-2.891955	-173.817743	-2.891955	-173.817743	-11.745456	61.132353
7.600000	-8.773028	61.304681	-3.264204	172.362519	-3.264204	172.362519	-8.769015	61.288585
7.650000	-6.832814	55.615057	-3.735856	159.631539	-3.735856	159.631539	-6.830917	55.621007
7.700000	-5.570646	48.350466	-4.236337	147.958375	-4.236337	147.958375	-5.569658	48.370854
7.750000	-4.757469	40.752746	-4.710502	137.250400	-4.710502	137.250400	-4.756945	40.783070
7.800000	-4.243385	33.249435	-5.118568	127.294385	-5.118568	127.294385	-4.243141	33.287101
7.850000	-3.917234	25.901136	-5.452313	117.803731	-5.452313	117.803731	-3.917198	25.944697
7.900000	-3.749504	18.702944	-5.689325	108.630700	-5.689325	108.630700	-3.749644	18.751297
7.950000	-3.722103	11.595352	-5.814914	99.569425	-5.814914	99.569425	-3.722421	11.647677
8.000000	-3.814652	4.498777	-5.837458	90.408619	-5.837458	90.408619	-3.815177	4.554525
8.050000	-4.038475	-2.639870	-5.756382	80.956527	-5.756382	80.956527	-4.039267	-2.581136
8.100000	-4.434451	-9.843377	-5.569378	70.954042	-5.569378	70.954042	-4.435616	-9.782010
8.150000	-5.070960	-17.021075	-5.287671	60.096817	-5.287671	60.096817	-5.072690	-16.957253
8.200000	-6.060490	-23.754464	-4.941857	48.050359	-4.941857	48.050359	-6.063125	-23.687834
8.250000	-7.579181	-28.753813	-4.587051	34.466459	-4.587051	34.466459	-7.583349	-28.682177
8.300000	-9.764983	-28.001240	-4.321178	19.056723	-4.321178	19.056723	-9.771571	-27.914610
8.350000	-11.806581	-13.684454	-4.275754	1.926259	-4.275754	1.926259	-11.813811	-13.556627
8.400000	-10.825363	7.927274	-4.592611	-16.277827	-4.592611	-16.277827	-10.825980	8.078220
8.450000	-8.039967	14.719188	-5.313640	-34.366926	-5.313640	-34.366926	-8.036776	14.853477
8.500000	-5.818690	10.187192	-6.382240	-51.171160	-6.382240	-51.171160	-5.814831	10.308284
8.550000	-4.376690	2.082177	-7.659292	-66.187599	-7.659292	-66.187599	-4.372874	2.196435
8.600000	-3.483886	-6.749227	-9.017952	-79.335423	-9.017952	-79.335423	-3.480243	-6.638323
8.650000	-2.933086	-15.325379	-10.365117	-90.879143	-10.365117	-90.879143	-2.929615	-15.216092
8.700000	-2.579150	-23.457817	-11.673668	-101.251558	-11.673668	-101.251558	-2.575830	-23.349300
8.750000	-2.351497	-31.149312	-12.923012	-110.714716	-12.923012	-110.714716	-2.348309	-31.041090
8.800000	-2.211243	-38.422831	-14.079872	-119.429980	-14.079872	-119.429980	-2.208173	-38.314647
8.850000	-2.121148	-45.397579	-15.172979	-127.655306	-15.172979	-127.655306	-2.118187	-45.289341
8.900000	-2.065641	-52.130312	-16.203492	-135.506835	-16.203492	-135.506835	-2.062786	-52.022007
8.950000	-2.035602	-58.653377	-17.159423	-143.055664	-17.159423	-143.055664	-2.032851	-58.545058
9.000000	-2.021244	-65.024636	-18.062384	-150.402191	-18.062384	-150.402191	-2.018598	-64.916394
9.050000	-2.017811	-71.271865	-18.916612	-157.597763	-18.916612	-157.597763	-2.015273	-71.163820
9.100000	-2.022322	-77.408442	-19.716052	-164.674588	-19.716052	-164.674588	-2.019896	-77.300749
9.150000	-2.031395	-83.457840	-20.473952	-171.674424	-20.473952	-171.674424	-2.029086	-83.350668
9.200000	-2.043026	-89.435286	-21.199910	-178.622889	-21.199910	-178.622889	-2.040836	-89.328809
9.250000	-2.055934	-95.347755	-21.896531	174.464895	-21.896531	174.464895	-2.053867	-95.242152
9.300000	-2.069087	-101.200238	-22.566477	167.577415	-22.566477	167.577415	-2.067146	-101.095696
9.350000	-2.081653	-106.996063	-23.212370	160.706313	-23.212370	160.706313	-2.079839	-106.892775
9.400000	-2.092734	-112.730822	-23.829740	153.846902	-23.829740	153.846902	-2.091048	-112.629009
9.450000	-2.101647	-118.405118	-24.423094	146.996209	-24.423094	146.996209	-2.100087	-118.305002
9.500000	-2.108237	-124.024718	-25.001645	140.153872	-25.001645	140.153872	-2.106802	-123.926499
9.550000	-2.112266	-129.588586	-25.566685	133.322085	-25.566685	133.322085	-2.110952	-129.492464
9.600000	-2.113562	-135.095400	-26.119381	126.504198	-26.119381	126.504198	-2.112364	-135.001575
9.650000	-2.112013	-140.543633	-26.660739	119.704556	-26.660739	119.704556	-2.110925	-140.452304
9.700000	-2.107395	-145.927956	-27.189187	112.930204	-27.189187	112.930204	-2.106410	-145.839331
9.750000	-2.099387	-151.238708	-27.701231	106.193213	-27.701231	106.193213	-2.098496	-151.153019
9.800000	-2.088582	-156.485005	-28.204531	99.495927	-28.204531	99.495927	-2.087777	-156.402447
9.850000	-2.075091	-161.665454	-28.698970	92.844935	-28.698970	92.844935	-2.074362	-161.586223
9.900000	-2.059046	-166.778826	-29.184295	86.246780	-29.184295	86.246780	-2.058385	-166.703118
9.950000	-2.040605	-171.824069	-29.660118	79.707881	-29.660118	79.707881	-2.040003	-171.752080
10.000000	-2.019943	-176.800314	-30.125926	73.234464	-30.125926	73.234464	-2.019390	-176.732242
