! freq	dB(S11)	phase(S11)	dB(S12)	phase(S12)	
!     	dB(S21)	phase(S21)	dB(S22)	phase(S22)	
!S-par simulation data
#  GHz  S  DB  R 50
0.000000	-82.079662	0.000000	-0.000684	0.000000	-0.000684	0.000000	-82.079662	0.000000
0.050000	-46.294591	-91.068173	-0.005886	-3.306024	-0.005886	-3.306024	-46.294609	-91.068644
0.100000	-40.458068	-95.102195	-0.011917	-6.568531	-0.011917	-6.568531	-40.458085	-95.103107
0.150000	-37.042875	-99.034059	-0.016542	-9.821512	-0.016542	-9.821512	-37.042894	-99.035415
0.200000	-34.628197	-102.800041	-0.020867	-13.072096	-0.020867	-13.072096	-34.628219	-102.801850
0.250000	-32.773322	-106.439457	-0.025262	-16.320564	-0.025262	-16.320564	-32.773347	-106.441727
0.300000	-31.280427	-109.986689	-0.029768	-19.566900	-0.029768	-19.566900	-31.280455	-109.989435
0.350000	-30.042611	-113.465225	-0.034350	-22.811409	-0.034350	-22.811409	-30.042641	-113.468465
0.400000	-28.995553	-116.891313	-0.038969	-26.054535	-0.038969	-26.054535	-28.995584	-116.895070
0.450000	-28.098041	-120.276491	-0.043596	-29.296722	-0.043596	-29.296722	-28.098074	-120.280793
0.500000	-27.321440	-123.630334	-0.048212	-32.538374	-0.048212	-32.538374	-27.321474	-123.635214
0.550000	-26.645307	-126.960371	-0.052805	-35.779825	-0.052805	-35.779825	-26.645342	-126.965868
0.600000	-26.054761	-130.272534	-0.057362	-39.021353	-0.057362	-39.021353	-26.054797	-130.278692
0.650000	-25.538585	-133.571626	-0.061871	-42.263203	-0.061871	-42.263203	-25.538620	-133.578496
0.700000	-25.088145	-136.861537	-0.066319	-45.505602	-0.066319	-45.505602	-25.088181	-136.869177
0.750000	-24.696692	-140.145417	-0.070692	-48.748769	-0.070692	-48.748769	-24.696728	-140.153890
0.800000	-24.358875	-143.425818	-0.074976	-51.992930	-0.074976	-51.992930	-24.358911	-143.435197
0.850000	-24.071688	-146.704834	-0.079154	-55.238368	-0.079154	-55.238368	-24.071724	-146.715204
0.900000	-23.829521	-149.984224	-0.083221	-58.485259	-0.083221	-58.485259	-23.829558	-149.995675
0.950000	-23.630443	-153.265367	-0.087163	-61.733894	-0.087163	-61.733894	-23.630480	-153.278003
1.000000	-23.472176	-156.549460	-0.090972	-64.984549	-0.090972	-64.984549	-23.472214	-156.563399
1.050000	-23.352869	-159.837530	-0.094644	-68.237515	-0.094644	-68.237515	-23.352907	-159.852905
1.100000	-23.271023	-163.130481	-0.098175	-71.493094	-0.098175	-71.493094	-23.271060	-163.147442
1.150000	-23.225428	-166.429127	-0.101565	-74.751594	-0.101565	-74.751594	-23.225465	-166.447844
1.200000	-23.215118	-169.734220	-0.104819	-78.013334	-0.104819	-78.013334	-23.215154	-169.754887
1.250000	-23.239331	-173.046476	-0.107942	-81.278633	-0.107942	-81.278633	-23.239365	-173.069312
1.300000	-23.298182	-176.366778	-0.110941	-84.547904	-0.110941	-84.547904	-23.298214	-176.392039
1.350000	-23.390450	-179.695669	-0.113833	-87.821388	-0.113833	-87.821388	-23.390479	-179.723644
1.400000	-23.515769	176.966132	-0.116631	-91.099398	-0.116631	-91.099398	-23.515793	176.935116
1.450000	-23.673843	173.617874	-0.119353	-94.382243	-0.119353	-94.382243	-23.673860	173.583439
1.500000	-23.864411	170.258753	-0.122016	-97.670222	-0.122016	-97.670222	-23.864420	170.220470
1.550000	-24.087212	166.887902	-0.124642	-100.963628	-0.124642	-100.963628	-24.087209	166.845274
1.600000	-24.341929	163.504372	-0.127250	-104.262743	-0.127250	-104.262743	-24.341911	163.456831
1.650000	-24.628138	160.107120	-0.129861	-107.567842	-0.129861	-107.567842	-24.628101	160.054014
1.700000	-24.945229	156.694999	-0.132497	-110.879193	-0.132497	-110.879193	-24.945166	156.635577
1.750000	-25.292313	153.266750	-0.135177	-114.197057	-0.135177	-114.197057	-25.292217	153.200155
1.800000	-25.668104	149.821012	-0.137920	-117.521693	-0.137920	-117.521693	-25.667966	149.746262
1.850000	-26.070766	146.356334	-0.140745	-120.853359	-0.140745	-120.853359	-26.070574	146.272315
1.900000	-26.497707	142.870988	-0.143667	-124.192400	-0.143667	-124.192400	-26.497446	142.776427
1.950000	-26.945146	139.363484	-0.146703	-127.539096	-0.146703	-127.539096	-26.944797	139.256960
2.000000	-27.408150	135.832808	-0.149861	-130.893653	-0.149861	-130.893653	-27.407689	135.712776
2.050000	-27.880232	132.278150	-0.153152	-134.256376	-0.153152	-134.256376	-27.879632	132.142962
2.100000	-28.352945	128.699457	-0.156583	-137.627593	-0.156583	-137.627593	-28.352173	128.547414
2.150000	-28.815530	125.097863	-0.160159	-141.007668	-0.160159	-141.007668	-28.814549	124.927310
2.200000	-29.254642	121.476214	-0.163884	-144.397000	-0.163884	-144.397000	-29.253411	121.285685
2.250000	-29.654263	117.839606	-0.167763	-147.796035	-0.167763	-147.796035	-29.652744	117.628018
2.300000	-29.995944	114.195793	-0.171797	-151.205273	-0.171797	-151.205273	-29.994104	113.962690
2.350000	-30.259534	110.555225	-0.175992	-154.625271	-0.175992	-154.625271	-30.257357	110.301039
2.400000	-30.424518	106.930449	-0.180352	-158.056655	-0.180352	-158.056655	-30.422010	106.656729
2.450000	-30.471926	103.334690	-0.184887	-161.500123	-0.184887	-161.500123	-30.469123	103.044226
2.500000	-30.386588	99.779680	-0.189612	-164.956448	-0.189612	-164.956448	-30.383559	99.476454
2.550000	-30.155873	96.274328	-0.194551	-168.426810	-0.194551	-168.426810	-30.152717	95.963364
2.600000	-29.780974	92.819255	-0.199729	-171.911880	-0.199729	-171.911880	-29.777800	92.505934
2.650000	-29.267855	89.409545	-0.205187	-175.412696	-0.205187	-175.412696	-29.264770	89.099144
2.700000	-28.629158	86.034894	-0.210977	-178.930383	-0.210977	-178.930383	-28.626249	85.732107
2.750000	-27.882299	82.681699	-0.217167	177.533850	-0.217167	177.533850	-27.879628	82.390298
2.800000	-27.047194	79.335390	-0.223842	173.978715	-0.223842	173.978715	-27.044795	79.058082
2.850000	-26.148595	75.982910	-0.231086	170.403522	-0.231086	170.403522	-26.146475	75.721341
2.900000	-25.195723	72.611734	-0.239073	166.805453	-0.239073	166.805453	-25.193875	72.366718
2.950000	-24.211027	69.213161	-0.247939	163.183791	-0.247939	163.183791	-24.209430	68.984750
3.000000	-23.208847	65.780665	-0.257873	159.537075	-0.257873	159.537075	-23.207474	65.568408
3.050000	-22.200879	62.309741	-0.269098	155.863848	-0.269098	155.863848	-22.199702	62.112858
3.100000	-21.196390	58.797438	-0.281877	152.162684	-0.281877	152.162684	-21.195381	58.614960
3.150000	-20.202030	55.241689	-0.296528	148.432052	-0.296528	148.432052	-20.201165	55.072552
3.200000	-19.223374	51.641440	-0.313406	144.670659	-0.313406	144.670659	-19.222629	51.484565
3.250000	-18.265036	47.996438	-0.332903	140.877518	-0.332903	140.877518	-18.264394	47.850782
3.300000	-17.329990	44.306581	-0.355465	137.051654	-0.355465	137.051654	-17.329433	44.171155
3.350000	-16.420383	40.572074	-0.381588	133.192303	-0.381588	133.192303	-16.419899	40.445960
3.400000	-15.537753	36.793403	-0.411815	129.298972	-0.411815	129.298972	-15.537329	36.675760
3.450000	-14.683038	32.971232	-0.446741	125.371398	-0.446741	125.371398	-14.682666	32.861293
3.500000	-13.856791	29.106460	-0.487028	121.409622	-0.487028	121.409622	-13.856463	29.003529
3.550000	-13.060252	25.201177	-0.533251	117.414801	-0.533251	117.414801	-13.059961	25.104638
3.600000	-12.293306	21.256900	-0.586150	113.387783	-0.586150	113.387783	-12.293046	21.166191
3.650000	-11.556228	17.276056	-0.646425	109.330322	-0.646425	109.330322	-11.555995	17.190676
3.700000	-10.849346	13.261799	-0.714737	105.244934	-0.714737	105.244934	-10.849136	13.181299
3.750000	-10.172727	9.217669	-0.791763	101.134624	-0.791763	101.134624	-10.172537	9.141648
3.800000	-9.526290	5.147695	-0.878201	97.002954	-0.878201	97.002954	-9.526117	5.075791
3.850000	-8.910111	1.056789	-0.974610	92.854372	-0.974610	92.854372	-8.909953	0.988677
3.900000	-8.324066	-3.049726	-1.081527	88.693809	-1.081527	88.693809	-8.323922	-3.114335
3.950000	-7.767941	-7.166005	-1.199462	84.526765	-1.199462	84.526765	-7.767808	-7.227376
4.000000	-7.241508	-11.285632	-1.328773	80.359329	-1.328773	80.359329	-7.241385	-11.344001
4.050000	-6.744408	-15.401935	-1.469622	76.197851	-1.469622	76.197851	-6.744294	-15.457514
4.100000	-6.276192	-19.507833	-1.622280	72.049181	-1.622280	72.049181	-6.276085	-19.560818
4.150000	-5.836310	-23.596191	-1.786705	67.920199	-1.786705	67.920199	-5.836209	-23.646756
4.200000	-5.424074	-27.659947	-1.962753	63.817744	-1.962753	63.817744	-5.423979	-27.708251
4.250000	-5.038699	-31.692148	-2.150179	59.748573	-2.150179	59.748573	-5.038610	-31.738337
4.300000	-4.679305	-35.686113	-2.348618	55.719197	-2.348618	55.719197	-4.679220	-35.730318
4.350000	-4.344920	-39.635546	-2.557589	51.735757	-2.557589	51.735757	-4.344840	-39.677886
4.400000	-4.034568	-43.534338	-2.776529	47.804231	-2.776529	47.804231	-4.034492	-43.574926
4.450000	-3.747144	-47.377183	-3.004749	43.929805	-3.004749	43.929805	-3.747071	-47.416119
4.500000	-3.481417	-51.159784	-3.241483	40.116662	-3.241483	40.116662	-3.481347	-51.197160
4.550000	-3.236191	-54.878245	-3.485934	36.368603	-3.485934	36.368603	-3.236123	-54.914147
4.600000	-3.010565	-58.527657	-3.737239	32.690475	-3.737239	32.690475	-3.010499	-58.562164
4.650000	-2.802766	-62.108473	-3.994567	29.081708	-3.994567	29.081708	-2.802703	-62.141656
4.700000	-2.611842	-65.617572	-4.257060	25.545369	-4.257060	25.545369	-2.611780	-65.649497
4.750000	-2.436620	-69.053732	-4.523868	22.082613	-4.523868	22.082613	-2.436560	-69.084461
4.800000	-2.275965	-72.416310	-4.794161	18.694015	-4.794161	18.694015	-2.275907	-72.445899
4.850000	-2.128787	-75.705186	-5.067136	15.379631	-5.067136	15.379631	-2.128730	-75.733688
4.900000	-1.994044	-78.920706	-5.342027	12.139048	-5.342027	12.139048	-1.993989	-78.948170
4.950000	-1.870753	-82.063621	-5.618107	8.971448	-5.618107	8.971448	-1.870698	-82.090093
5.000000	-1.757985	-85.135030	-5.894694	5.875662	-5.894694	5.875662	-1.757931	-85.160552
5.050000	-1.655041	-88.134836	-6.170948	2.851721	-6.170948	2.851721	-1.654987	-88.159447
5.100000	-1.560917	-91.066234	-6.446468	-0.103654	-6.446468	-0.103654	-1.560865	-91.089972
5.150000	-1.474868	-93.931050	-6.720723	-2.992364	-6.720723	-2.992364	-1.474816	-93.953948
5.200000	-1.396200	-96.731249	-6.993226	-5.816456	-6.993226	-5.816456	-1.396149	-96.753339
5.250000	-1.324278	-99.468902	-7.263539	-8.578080	-7.263539	-8.578080	-1.324227	-99.490214
5.300000	-1.258517	-102.146148	-7.531262	-11.279461	-7.531262	-11.279461	-1.258467	-102.166709
5.350000	-1.198381	-104.765169	-7.796041	-13.922866	-7.796041	-13.922866	-1.198331	-104.785006
5.400000	-1.143381	-107.328165	-8.057558	-16.510580	-8.057558	-16.510580	-1.143332	-107.347302
5.450000	-1.093069	-109.837334	-8.315531	-19.044890	-8.315531	-19.044890	-1.093020	-109.855794
5.500000	-1.047038	-112.294854	-8.569711	-21.528060	-8.569711	-21.528060	-1.046990	-112.312659
5.550000	-1.004917	-114.702873	-8.819881	-23.962326	-8.819881	-23.962326	-1.004868	-114.720042
5.600000	-0.966367	-117.063495	-9.065849	-26.349877	-9.065849	-26.349877	-0.966318	-117.080047
5.650000	-0.931111	-119.378303	-9.307331	-28.692393	-9.307331	-28.692393	-0.931063	-119.394256
5.700000	-0.898864	-121.649361	-9.544190	-30.992022	-9.544190	-30.992022	-0.898816	-121.664732
5.750000	-0.869339	-123.879093	-9.776429	-33.251261	-9.776429	-33.251261	-0.869291	-123.893897
5.800000	-0.842307	-126.069365	-10.003948	-35.472056	-10.003948	-35.472056	-0.842258	-126.083619
5.850000	-0.817732	-128.218884	-10.225760	-37.653290	-10.225760	-37.653290	-0.817684	-128.232601
5.900000	-0.795045	-130.336095	-10.443732	-39.803269	-10.443732	-39.803269	-0.794997	-130.349287
5.950000	-0.774286	-132.419010	-10.656773	-41.920181	-10.656773	-41.920181	-0.774238	-132.431689
6.000000	-0.755297	-134.469233	-10.864841	-44.005695	-10.864841	-44.005695	-0.755249	-134.481411
6.050000	-0.737937	-136.488304	-11.067902	-46.061412	-11.067902	-46.061412	-0.737889	-136.499993
6.100000	-0.722076	-138.477702	-11.265936	-48.088864	-11.265936	-48.088864	-0.722027	-138.488912
6.150000	-0.707594	-140.438842	-11.458928	-50.089518	-11.458928	-50.089518	-0.707546	-140.449582
6.200000	-0.694386	-142.373080	-11.646872	-52.064775	-11.646872	-52.064775	-0.694338	-142.383360
6.250000	-0.682353	-144.281717	-11.829771	-54.015977	-11.829771	-54.015977	-0.682304	-144.291545
6.300000	-0.671449	-146.164993	-12.007258	-55.943469	-12.007258	-55.943469	-0.671400	-146.174379
6.350000	-0.661542	-148.025208	-12.179738	-57.849511	-12.179738	-57.849511	-0.661493	-148.034158
6.400000	-0.652560	-149.863496	-12.347226	-59.735260	-12.347226	-59.735260	-0.652511	-149.872018
6.450000	-0.644436	-151.680945	-12.509743	-61.601819	-12.509743	-61.601819	-0.644386	-151.689046
6.500000	-0.637107	-153.478596	-12.667311	-63.450243	-12.667311	-63.450243	-0.637058	-153.486282
6.550000	-0.630519	-155.257449	-12.819957	-65.281534	-12.819957	-65.281534	-0.630469	-155.264727
6.600000	-0.624619	-157.018462	-12.967708	-67.096651	-12.967708	-67.096651	-0.624569	-157.025338
6.650000	-0.619361	-158.762555	-13.110594	-68.896504	-13.110594	-68.896504	-0.619311	-158.769035
6.700000	-0.614701	-160.490611	-13.248648	-70.681965	-13.248648	-70.681965	-0.614651	-160.496699
6.750000	-0.610601	-162.203477	-13.381903	-72.453861	-13.381903	-72.453861	-0.610550	-162.209178
6.800000	-0.607024	-163.901968	-13.510392	-74.212982	-13.510392	-74.212982	-0.606973	-163.907287
6.850000	-0.603936	-165.586868	-13.634151	-75.960081	-13.634151	-75.960081	-0.603885	-165.591809
6.900000	-0.601307	-167.258930	-13.753214	-77.695875	-13.753214	-77.695875	-0.601256	-167.263498
6.950000	-0.599110	-168.918880	-13.867617	-79.421049	-13.867617	-79.421049	-0.599059	-168.923079
7.000000	-0.597318	-170.567419	-13.977396	-81.136255	-13.977396	-81.136255	-0.597267	-170.571251
7.050000	-0.595908	-172.205220	-14.082585	-82.842113	-14.082585	-82.842113	-0.595856	-172.208690
7.100000	-0.594858	-173.832933	-14.183220	-84.539218	-14.183220	-84.539218	-0.594806	-173.836045
7.150000	-0.594149	-175.451189	-14.279335	-86.228135	-14.279335	-86.228135	-0.594097	-175.453945
7.200000	-0.593761	-177.060594	-14.370965	-87.909403	-14.370965	-87.909403	-0.593709	-177.062996
7.250000	-0.593678	-178.661735	-14.458142	-89.583539	-14.458142	-89.583539	-0.593626	-178.663788
7.300000	-0.593885	179.744818	-14.540898	-91.251035	-14.540898	-91.251035	-0.593833	179.743113
7.350000	-0.594367	178.158515	-14.619266	-92.912360	-14.619266	-92.912360	-0.594315	178.157155
7.400000	-0.595112	176.578821	-14.693275	-94.567966	-14.693275	-94.567966	-0.595060	176.577803
7.450000	-0.596107	175.005218	-14.762955	-96.218282	-14.762955	-96.218282	-0.596055	175.004540
7.500000	-0.597342	173.437201	-14.828333	-97.863721	-14.828333	-97.863721	-0.597290	173.436861
7.550000	-0.598817	171.874479	-14.889234	-99.504501	-14.889234	-99.504501	-0.598764	171.874475
7.600000	-0.600511	170.316335	-14.945894	-101.141212	-14.945894	-101.141212	-0.600459	170.316665
7.650000	-0.602417	168.762305	-14.998334	-102.774215	-14.998334	-102.774215	-0.602365	168.762968
7.700000	-0.604527	167.211939	-15.046576	-104.403860	-15.046576	-104.403860	-0.604475	167.212932
7.750000	-0.606835	165.664793	-15.090640	-106.030483	-15.090640	-106.030483	-0.606783	165.666115
7.800000	-0.609335	164.120438	-15.130544	-107.654408	-15.130544	-107.654408	-0.609284	164.122088
7.850000	-0.612021	162.578451	-15.166306	-109.275949	-15.166306	-109.275949	-0.611970	162.580427
7.900000	-0.614889	161.038419	-15.197940	-110.895412	-15.197940	-110.895412	-0.614838	161.040720
7.950000	-0.617934	159.499936	-15.225459	-112.513092	-15.225459	-112.513092	-0.617884	159.502560
8.000000	-0.621154	157.962604	-15.248876	-114.129276	-15.248876	-114.129276	-0.621104	157.965550
8.050000	-0.624544	156.426030	-15.268199	-115.744247	-15.268199	-115.744247	-0.624494	156.429297
8.100000	-0.628102	154.889829	-15.283438	-117.358280	-15.283438	-117.358280	-0.628053	154.893416
8.150000	-0.631826	153.353621	-15.294597	-118.971646	-15.294597	-118.971646	-0.631778	153.357526
8.200000	-0.635715	151.817028	-15.301682	-120.584613	-15.301682	-120.584613	-0.635667	151.821252
8.250000	-0.639767	150.279681	-15.304694	-122.197445	-15.304694	-122.197445	-0.639720	150.284220
8.300000	-0.643981	148.741210	-15.303634	-123.810404	-15.303634	-123.810404	-0.643935	148.746065
8.350000	-0.648368	147.201132	-15.298262	-125.423799	-15.298262	-125.423799	-0.648323	147.206301
8.400000	-0.652887	145.659610	-15.289584	-127.037680	-15.289584	-127.037680	-0.652843	145.665092
8.450000	-0.657621	144.115142	-15.275534	-128.652792	-15.275534	-128.652792	-0.657578	144.120936
8.500000	-0.662496	142.568380	-15.258001	-130.268988	-15.258001	-130.268988	-0.662453	142.574485
8.550000	-0.667512	141.019168	-15.236990	-131.886386	-15.236990	-131.886386	-0.667471	141.025583
8.600000	-0.672725	139.466191	-15.211204	-133.505744	-15.211204	-133.505744	-0.672685	139.472914
8.650000	-0.678124	137.909151	-15.180930	-135.127359	-15.180930	-135.127359	-0.678085	137.916181
8.700000	-0.683674	136.348643	-15.147141	-136.750967	-15.147141	-136.750967	-0.683636	136.355979
8.750000	-0.689376	134.784509	-15.109849	-138.376697	-15.109849	-138.376697	-0.689340	134.792149
8.800000	-0.695335	133.213721	-15.066656	-140.006494	-15.066656	-140.006494	-0.695300	133.221663
8.850000	-0.701459	131.638418	-15.019886	-141.639162	-15.019886	-141.639162	-0.701426	131.646661
8.900000	-0.707752	130.058432	-14.969557	-143.274850	-14.969557	-143.274850	-0.707720	130.066975
8.950000	-0.714266	128.472115	-14.914601	-144.914715	-14.914601	-144.914715	-0.714235	128.480955
9.000000	-0.721029	126.878369	-14.854574	-146.559653	-14.854574	-146.559653	-0.721001	126.887504
9.050000	-0.727987	125.278821	-14.790904	-148.208655	-14.790904	-148.208655	-0.727960	125.288248
9.100000	-0.735143	123.673289	-14.723617	-149.861897	-14.723617	-149.861897	-0.735118	123.683007
9.150000	-0.742625	122.057797	-14.650355	-151.522411	-14.650355	-151.522411	-0.742601	122.067802
9.200000	-0.750357	120.434695	-14.572957	-153.188667	-14.572957	-153.188667	-0.750335	120.444984
9.250000	-0.758330	118.804363	-14.491836	-154.860463	-14.491836	-154.860463	-0.758310	118.814933
9.300000	-0.766599	117.165128	-14.406173	-156.539198	-14.406173	-156.539198	-0.766581	117.175975
9.350000	-0.775268	115.514078	-14.314570	-158.227448	-14.314570	-158.227448	-0.775253	115.525197
9.400000	-0.784241	113.854395	-14.219108	-159.922843	-14.219108	-159.922843	-0.784227	113.865782
9.450000	-0.793528	112.185845	-14.119830	-161.625664	-14.119830	-161.625664	-0.793516	112.197497
9.500000	-0.803313	110.503608	-14.014371	-163.340257	-14.014371	-163.340257	-0.803303	110.515518
9.550000	-0.813555	108.809413	-13.903968	-165.065481	-13.903968	-165.065481	-0.813548	108.821573
9.600000	-0.824215	107.104684	-13.789587	-166.800250	-13.789587	-166.800250	-0.824210	107.117090
9.650000	-0.835356	105.388088	-13.670761	-168.545928	-13.670761	-168.545928	-0.835354	105.400733
9.700000	-0.847270	103.653418	-13.544715	-170.308792	-13.544715	-170.308792	-0.847271	103.666292
9.750000	-0.859620	101.909218	-13.415912	-172.080948	-13.415912	-172.080948	-0.859624	101.922314
9.800000	-0.872806	100.147220	-13.280633	-173.870794	-13.280633	-173.870794	-0.872813	100.160527
9.850000	-0.886797	98.369113	-13.140013	-175.677114	-13.140013	-175.677114	-0.886808	98.382620
9.900000	-0.901656	96.574682	-12.994260	-177.500563	-12.994260	-177.500563	-0.901671	96.588378
9.950000	-0.917578	94.761338	-12.842528	-179.344376	-12.842528	-179.344376	-0.917598	94.775210
10.000000	-0.934523	92.930979	-12.685996	178.793004	-12.685996	178.793004	-0.934549	92.945014
