! freq	dB(S11)	phase(S11)	dB(S12)	phase(S12)	
!     	dB(S21)	phase(S21)	dB(S22)	phase(S22)	
!S-par simulation data
#  GHz  S  DB  R 50
0.000000	-78.559061	0.000000	-0.001025	0.000000	-0.001025	0.000000	-78.559061	0.000000
0.050000	-41.688175	-92.499941	-0.009062	-4.916565	-0.009062	-4.916565	-41.693956	-92.939467
0.100000	-35.858274	-98.091475	-0.018410	-9.767373	-0.018410	-9.767373	-35.865028	-98.992911
0.150000	-32.460617	-103.357240	-0.025951	-14.603674	-0.025951	-14.603674	-32.467626	-104.716229
0.200000	-30.089168	-108.384201	-0.033319	-19.434573	-0.033319	-19.434573	-30.096153	-110.203136
0.250000	-28.292284	-113.274000	-0.040947	-24.260297	-0.040947	-24.260297	-28.298941	-115.559463
0.300000	-26.871316	-118.069757	-0.048805	-29.080620	-0.048805	-29.080620	-26.877366	-120.831881
0.350000	-25.717330	-122.801267	-0.056762	-33.896190	-0.056762	-33.896190	-25.722574	-126.052870
0.400000	-24.765042	-127.485810	-0.064709	-38.707877	-0.064709	-38.707877	-24.769349	-131.242002
0.450000	-23.976676	-132.132204	-0.072556	-43.516418	-0.072556	-43.516418	-23.979936	-136.411544
0.500000	-23.320960	-136.748332	-0.080240	-48.322757	-0.080240	-48.322757	-23.323088	-141.571444
0.550000	-22.782019	-141.336206	-0.087694	-53.127535	-0.087694	-53.127535	-22.782915	-146.728287
0.600000	-22.344507	-145.897929	-0.094866	-57.931480	-0.094866	-57.931480	-22.344062	-151.887968
0.650000	-21.998550	-150.433527	-0.101702	-62.735243	-0.101702	-62.735243	-21.996639	-157.055574
0.700000	-21.739544	-154.940972	-0.108136	-67.539523	-0.108136	-67.539523	-21.736017	-162.236785
0.750000	-21.560954	-159.418627	-0.114128	-72.345031	-0.114128	-72.345031	-21.555649	-167.436929
0.800000	-21.459393	-163.863305	-0.119639	-77.152502	-0.119639	-77.152502	-21.452133	-172.662057
0.850000	-21.434217	-168.269960	-0.124632	-81.962752	-0.124632	-81.962752	-21.424806	-177.919650
0.900000	-21.485505	-172.632137	-0.129090	-86.776629	-0.129090	-86.776629	-21.473725	176.781548
0.950000	-21.614770	-176.941153	-0.133013	-91.595009	-0.133013	-91.595009	-21.600376	171.430816
1.000000	-21.825638	178.815314	-0.136416	-96.418826	-0.136416	-96.418826	-21.808351	166.014076
1.050000	-22.123098	174.653935	-0.139339	-101.248990	-0.139339	-101.248990	-22.102593	160.513271
1.100000	-22.513299	170.596575	-0.141850	-106.086278	-0.141850	-106.086278	-22.489194	154.905733
1.150000	-23.005815	166.675075	-0.144032	-110.931454	-0.144032	-110.931454	-22.977648	149.159550
1.200000	-23.612218	162.930853	-0.145987	-115.785012	-0.145987	-115.785012	-23.579431	143.234297
1.250000	-24.353185	159.439439	-0.147825	-120.647799	-0.147825	-120.647799	-24.315105	137.056999
1.300000	-25.252438	156.305304	-0.149676	-125.520101	-0.149676	-125.520101	-25.208283	130.528424
1.350000	-26.345428	153.708549	-0.151672	-130.402235	-0.151672	-130.402235	-26.294404	123.478353
1.400000	-27.681884	151.960636	-0.153947	-135.294285	-0.153947	-135.294285	-27.623557	115.613699
1.450000	-29.332530	151.648144	-0.156627	-140.196177	-0.156627	-140.196177	-29.268214	106.382853
1.500000	-31.388978	153.999505	-0.159830	-145.107740	-0.159830	-145.107740	-31.327040	94.625246
1.550000	-33.901554	161.753101	-0.163654	-150.028652	-0.163654	-150.028652	-33.878270	77.704077
1.600000	-36.436357	-179.561069	-0.168182	-154.958520	-0.168182	-154.958520	-36.577646	49.893704
1.650000	-36.984092	-148.934819	-0.173477	-159.896927	-0.173477	-159.896927	-37.390335	8.584898
1.700000	-34.764276	-124.544842	-0.179562	-164.843261	-0.179562	-164.843261	-35.168745	-27.315104
1.750000	-31.969408	-113.353356	-0.186463	-169.797176	-0.186463	-169.797176	-32.270622	-49.012902
1.800000	-29.578558	-109.289284	-0.194140	-174.757991	-0.194140	-174.757991	-29.807000	-63.120457
1.850000	-27.624207	-108.764665	-0.202577	-179.725530	-0.202577	-179.725530	-27.807254	-73.559270
1.900000	-26.017468	-109.999234	-0.211682	175.300771	-0.211682	175.300771	-26.171347	-82.212137
1.950000	-24.677229	-112.268141	-0.221388	170.320923	-0.221388	170.320923	-24.811578	-89.831045
2.000000	-23.544934	-115.149741	-0.231576	165.335156	-0.231576	165.335156	-23.665781	-96.845931
2.050000	-22.580465	-118.431939	-0.242134	160.343269	-0.242134	160.343269	-22.691878	-103.471615
2.100000	-21.754267	-121.975548	-0.252927	155.345070	-0.252927	155.345070	-21.859153	-109.848067
2.150000	-21.045378	-125.694257	-0.263819	150.340083	-0.263819	150.340083	-21.145970	-116.062291
2.200000	-20.438235	-129.527970	-0.274668	145.327639	-0.274668	145.327639	-20.536366	-122.175285
2.250000	-19.920378	-133.431268	-0.285336	140.306979	-0.285336	140.306979	-20.017645	-128.233574
2.300000	-19.483626	-137.369928	-0.295685	135.276892	-0.295685	135.276892	-19.581549	-134.273422
2.350000	-19.119476	-141.313854	-0.305600	130.236386	-0.305600	130.236386	-19.219527	-140.326724
2.400000	-18.824125	-145.235685	-0.314957	125.183637	-0.314957	125.183637	-18.927908	-146.424332
2.450000	-18.591139	-149.110319	-0.323684	120.117463	-0.323684	120.117463	-18.700335	-152.593886
2.500000	-18.418710	-152.908459	-0.331691	115.035562	-0.331691	115.035562	-18.535294	-158.869574
2.550000	-18.302174	-156.602938	-0.338958	109.936419	-0.338958	109.936419	-18.428353	-165.282338
2.600000	-18.239882	-160.157757	-0.345454	104.817512	-0.345454	104.817512	-18.378305	-171.874419
2.650000	-18.228293	-163.536320	-0.351213	99.676861	-0.351213	99.676861	-18.382052	-178.688325
2.700000	-18.264559	-166.692067	-0.356285	94.511939	-0.356285	94.511939	-18.437338	174.221230
2.750000	-18.344632	-169.571532	-0.360768	89.320251	-0.360768	89.320251	-18.540770	166.791046
2.800000	-18.462588	-172.115689	-0.364802	84.099488	-0.364802	84.099488	-18.687065	158.950507
2.850000	-18.610800	-174.248943	-0.368563	78.846582	-0.368563	78.846582	-18.869238	150.607126
2.900000	-18.777108	-175.907077	-0.372279	73.559690	-0.372279	73.559690	-19.075269	141.679308
2.950000	-18.944918	-177.002018	-0.376228	68.235116	-0.376228	68.235116	-19.288151	132.050842
3.000000	-19.091842	-177.497693	-0.380717	62.871595	-0.380717	62.871595	-19.483526	121.663216
3.050000	-19.187187	-177.355690	-0.386140	57.465178	-0.386140	57.465178	-19.626735	110.445842
3.100000	-19.199012	-176.644397	-0.392885	52.014782	-0.392885	52.014782	-19.679729	98.457870
3.150000	-19.091170	-175.491940	-0.401455	46.516978	-0.401455	46.516978	-19.598458	85.830106
3.200000	-18.839787	-174.138533	-0.412340	40.970363	-0.412340	40.970363	-19.352715	72.842714
3.250000	-18.432841	-172.879627	-0.426132	35.372434	-0.426132	35.372434	-18.927777	59.848414
3.300000	-17.878884	-172.013864	-0.443452	29.721434	-0.443452	29.721434	-18.335232	47.204409
3.350000	-17.203401	-171.772921	-0.464933	24.016261	-0.464933	24.016261	-17.607695	35.178583
3.400000	-16.435677	-172.315035	-0.491391	18.254479	-0.491391	18.254479	-16.781952	23.936122
3.450000	-15.610469	-173.683560	-0.523563	12.435632	-0.523563	12.435632	-15.899235	13.505518
3.500000	-14.756046	-175.860738	-0.562288	6.558957	-0.562288	6.558957	-14.991643	3.844970
3.550000	-13.894174	-178.788880	-0.608475	0.624005	-0.608475	0.624005	-14.082698	-5.127214
3.600000	-13.040236	177.606391	-0.663127	-5.369430	-0.663127	-5.369430	-13.188179	-13.505102
3.650000	-12.205277	173.410495	-0.727217	-11.420390	-0.727217	-11.420390	-12.318821	-21.386782
3.700000	-11.396022	168.700484	-0.801818	-17.527652	-0.801818	-17.527652	-11.480700	-28.856691
3.750000	-10.616574	163.546423	-0.888052	-23.689269	-0.888052	-23.689269	-10.677200	-35.987402
3.800000	-9.869102	158.008346	-0.987179	-29.902811	-0.987179	-29.902811	-9.909810	-42.838015
3.850000	-9.155165	152.144541	-1.100319	-36.164127	-1.100319	-36.164127	-9.179487	-49.460708
3.900000	-8.475168	146.001404	-1.228836	-42.468792	-1.228836	-42.468792	-8.486128	-55.894096
3.950000	-7.829678	139.627736	-1.373679	-48.810009	-1.373679	-48.810009	-7.829855	-62.173617
4.000000	-7.218586	133.063327	-1.535915	-55.180556	-1.535915	-55.180556	-7.210184	-68.324455
4.050000	-6.641531	126.340460	-1.717043	-61.572506	-1.717043	-61.572506	-6.626467	-74.362761
4.100000	-6.098454	119.496570	-1.917783	-67.975491	-1.917783	-67.975491	-6.078365	-80.304738
4.150000	-5.589053	112.564109	-2.138928	-74.378399	-2.138928	-74.378399	-5.565345	-86.160213
4.200000	-5.112984	105.573726	-2.381135	-80.768934	-2.381135	-80.768934	-5.086864	-91.934955
4.250000	-4.669833	98.555042	-2.644777	-87.133758	-2.644777	-87.133758	-4.642333	-97.631763
4.300000	-4.258883	91.536116	-2.929759	-93.459538	-2.929759	-93.459538	-4.230869	-103.252005
4.350000	-3.879361	84.542810	-3.235885	-99.732511	-3.235885	-99.732511	-3.851563	-108.794125
4.400000	-3.530306	77.599224	-3.562633	-105.939190	-3.562633	-105.939190	-3.503332	-114.255413
4.450000	-3.210586	70.727432	-3.909194	-112.066687	-3.909194	-112.066687	-3.184939	-119.632323
4.500000	-2.918911	63.947291	-4.274500	-118.103061	-4.274500	-118.103061	-2.894999	-124.920942
4.550000	-2.653848	57.276298	-4.657259	-124.037612	-4.657259	-124.037612	-2.631994	-130.117380
4.600000	-2.413932	50.730155	-5.055980	-129.860525	-5.055980	-129.860525	-2.394387	-135.217621
4.650000	-2.197602	44.322274	-5.468979	-135.563448	-5.468979	-135.563448	-2.180549	-140.218202
4.700000	-2.002994	38.061436	-5.894596	-141.141509	-5.894596	-141.141509	-1.988553	-145.117902
4.750000	-1.828405	31.955272	-6.331127	-146.590353	-6.331127	-146.590353	-1.816640	-149.915425
4.800000	-1.672150	26.009225	-6.776877	-151.907123	-6.776877	-151.907123	-1.663075	-154.610344
4.850000	-1.532593	20.226732	-7.230197	-157.090317	-7.230197	-157.090317	-1.526177	-159.203069
4.900000	-1.408166	14.609451	-7.689502	-162.139630	-7.689502	-162.139630	-1.404337	-163.694780
4.950000	-1.297388	9.157486	-8.153294	-167.055783	-8.153294	-167.055783	-1.296036	-168.087328
5.000000	-1.198873	3.869619	-8.620171	-171.840361	-8.620171	-171.840361	-1.199860	-172.383132
5.050000	-1.111503	-1.253595	-9.088388	-176.493364	-9.088388	-176.493364	-1.114658	-176.583421
5.100000	-1.033908	-6.218389	-9.557158	178.979930	-9.557158	178.979930	-1.039038	179.306816
5.150000	-0.965021	-11.028709	-10.025407	174.576195	-10.025407	174.576195	-0.971917	175.284112
5.200000	-0.903879	-15.689024	-10.492157	170.291774	-10.492157	170.291774	-0.912315	171.344858
5.250000	-0.849619	-20.204187	-10.956529	166.122766	-10.956529	166.122766	-0.859359	167.485374
5.300000	-0.801466	-24.579307	-11.417736	162.065107	-11.417736	162.065107	-0.812265	163.701979
5.350000	-0.758729	-28.819652	-11.875075	158.114634	-11.875075	158.114634	-0.770338	159.991041
5.400000	-0.720797	-32.930564	-12.327925	154.267141	-12.327925	154.267141	-0.732964	156.349018
5.450000	-0.687126	-36.917387	-12.775740	150.518423	-12.775740	150.518423	-0.699598	152.772490
5.500000	-0.657235	-40.785418	-13.218041	146.864316	-13.218041	146.864316	-0.669763	149.258182
5.550000	-0.630700	-44.539861	-13.654412	143.300727	-13.654412	143.300727	-0.643035	145.802977
5.600000	-0.607147	-48.185796	-14.084497	139.823658	-14.084497	139.823658	-0.619046	142.403929
5.650000	-0.586270	-51.727084	-14.507693	136.430083	-14.507693	136.430083	-0.597494	139.058815
5.700000	-0.567771	-55.168650	-14.923757	133.116124	-14.923757	133.116124	-0.578084	135.764956
5.750000	-0.551368	-58.516198	-15.332773	129.877277	-15.332773	129.877277	-0.560545	132.519358
5.800000	-0.536836	-61.774126	-15.734563	126.710084	-15.734563	126.710084	-0.544659	129.319774
5.850000	-0.524105	-64.939630	-16.126825	123.616852	-16.126825	123.616852	-0.530344	126.167742
5.900000	-0.512720	-68.031943	-16.514064	120.582244	-16.514064	120.582244	-0.517193	123.053495
5.950000	-0.502686	-71.046615	-16.893701	117.609886	-16.893701	117.609886	-0.505195	119.979512
6.000000	-0.493867	-73.987317	-17.265662	114.696908	-17.265662	114.696908	-0.494221	116.944143
6.050000	-0.486142	-76.857543	-17.629893	111.840584	-17.629893	111.840584	-0.484158	113.945865
6.100000	-0.479404	-79.660619	-17.986356	109.038328	-17.986356	109.038328	-0.474907	110.983279
6.150000	-0.473560	-82.399710	-18.335026	106.287688	-18.335026	106.287688	-0.466378	108.055096
6.200000	-0.468525	-85.077822	-18.675893	103.586342	-18.675893	103.586342	-0.458495	105.160136
6.250000	-0.464224	-87.697814	-19.008954	100.932091	-19.008954	100.932091	-0.451191	102.297312
6.300000	-0.460619	-90.260118	-19.333364	98.324720	-19.333364	98.324720	-0.444424	99.466940
6.350000	-0.457619	-92.769821	-19.650045	95.760227	-19.650045	95.760227	-0.438119	96.666721
6.400000	-0.455173	-95.229363	-19.959012	93.236764	-19.959012	93.236764	-0.432229	93.895827
6.450000	-0.453234	-97.641058	-20.260287	90.752583	-20.260287	90.752583	-0.426715	91.153497
6.500000	-0.451762	-100.007111	-20.553894	88.306029	-20.553894	88.306029	-0.421542	88.439035
6.550000	-0.450718	-102.329617	-20.839860	85.895537	-20.839860	85.895537	-0.416678	85.751798
6.600000	-0.450070	-104.610571	-21.118212	83.519623	-21.118212	83.519623	-0.412096	83.091197
6.650000	-0.449787	-106.851872	-21.388979	81.176884	-21.388979	81.176884	-0.407772	80.456689
6.700000	-0.449844	-109.055328	-21.652190	78.865990	-21.652190	78.865990	-0.403686	77.847772
6.750000	-0.450216	-111.222663	-21.907872	76.585680	-21.907872	76.585680	-0.399820	75.263983
6.800000	-0.450880	-113.355521	-22.156052	74.334757	-22.156052	74.334757	-0.396158	72.704893
6.850000	-0.451817	-115.455468	-22.396754	72.112086	-22.396754	72.112086	-0.392686	70.170102
6.900000	-0.453009	-117.524003	-22.630002	69.916589	-22.630002	69.916589	-0.389393	67.659238
6.950000	-0.454439	-119.562555	-22.855816	67.747241	-22.855816	67.747241	-0.386270	65.171953
7.000000	-0.456094	-121.572489	-23.074212	65.603066	-23.074212	65.603066	-0.383308	62.707921
7.050000	-0.457959	-123.555115	-23.285204	63.483135	-23.285204	63.483135	-0.380500	60.266833
7.100000	-0.460022	-125.511683	-23.488802	61.386561	-23.488802	61.386561	-0.377841	57.848397
7.150000	-0.462272	-127.443391	-23.685012	59.312498	-23.685012	59.312498	-0.375327	55.452335
7.200000	-0.464699	-129.351390	-23.873836	57.260136	-23.873836	57.260136	-0.372953	53.078381
7.250000	-0.467293	-131.236782	-24.055271	55.228699	-24.055271	55.228699	-0.370718	50.726280
7.300000	-0.470046	-133.100627	-24.229310	53.217444	-24.229310	53.217444	-0.368619	48.395785
7.350000	-0.472950	-134.943942	-24.395938	51.225655	-24.395938	51.225655	-0.366656	46.086656
7.400000	-0.475998	-136.767706	-24.555138	49.252641	-24.555138	49.252641	-0.364827	43.798660
7.450000	-0.479183	-138.572864	-24.706885	47.297736	-24.706885	47.297736	-0.363132	41.531566
7.500000	-0.482500	-140.360323	-24.851151	45.360294	-24.851151	45.360294	-0.361571	39.285150
7.550000	-0.485947	-142.130271	-24.987483	43.440391	-24.987483	43.440391	-0.360151	37.060068
7.600000	-0.489515	-143.884320	-25.116272	41.536657	-25.116272	41.536657	-0.358868	34.855201
7.650000	-0.493199	-145.623286	-25.237466	39.648495	-25.237466	39.648495	-0.357721	32.670327
7.700000	-0.496994	-147.347959	-25.351008	37.775318	-25.351008	37.775318	-0.356712	30.505228
7.750000	-0.500897	-149.059105	-25.456833	35.916545	-25.456833	35.916545	-0.355843	28.359683
7.800000	-0.504904	-150.757469	-25.554870	34.071601	-25.554870	34.071601	-0.355116	26.233470
7.850000	-0.509013	-152.443772	-25.645038	32.239912	-25.645038	32.239912	-0.354531	24.126368
7.900000	-0.513220	-154.118720	-25.727252	30.420905	-25.727252	30.420905	-0.354092	22.038149
7.950000	-0.517523	-155.782999	-25.801418	28.614001	-25.801418	28.614001	-0.353799	19.968587
8.000000	-0.521921	-157.437280	-25.867434	26.818616	-25.867434	26.818616	-0.353656	17.917448
8.050000	-0.526411	-159.082219	-25.925191	25.034155	-25.925191	25.034155	-0.353664	15.884497
8.100000	-0.530992	-160.718460	-25.974571	23.260010	-25.974571	23.260010	-0.353825	13.869493
8.150000	-0.535663	-162.346632	-26.015448	21.495557	-26.015448	21.495557	-0.354143	11.872189
8.200000	-0.540423	-163.967359	-26.047689	19.740153	-26.047689	19.740153	-0.354620	9.892334
8.250000	-0.545272	-165.581253	-26.071151	17.993130	-26.071151	17.993130	-0.355259	7.929667
8.300000	-0.550209	-167.188921	-26.085684	16.253795	-26.085684	16.253795	-0.356062	5.983922
8.350000	-0.555236	-168.790961	-26.091129	14.521423	-26.091129	14.521423	-0.357034	4.054823
8.400000	-0.560353	-170.387973	-26.087317	12.795257	-26.087317	12.795257	-0.358178	2.142085
8.450000	-0.565561	-171.980549	-26.074071	11.074498	-26.074071	11.074498	-0.359497	0.245412
8.500000	-0.570862	-173.569284	-26.051208	9.358309	-26.051208	9.358309	-0.360996	-1.635503
8.550000	-0.576259	-175.154776	-26.018532	7.645805	-26.018532	7.645805	-0.362680	-3.500980
8.600000	-0.581755	-176.737624	-25.975839	5.936054	-25.975839	5.936054	-0.364552	-5.351354
8.650000	-0.587352	-178.318435	-25.922918	4.228067	-25.922918	4.228067	-0.366619	-7.186974
8.700000	-0.593057	-179.897825	-25.859546	2.520800	-25.859546	2.520800	-0.368885	-9.008208
8.750000	-0.598874	178.523580	-25.785491	0.813148	-25.785491	0.813148	-0.371358	-10.815441
8.800000	-0.604815	176.945113	-25.699982	-0.896184	-25.699982	-0.896184	-0.374054	-12.608511
8.850000	-0.610883	175.366075	-25.603246	-2.608428	-25.603246	-2.608428	-0.376972	-14.388460
8.900000	-0.617088	173.785778	-25.495013	-4.324904	-25.495013	-4.324904	-0.380121	-16.155749
8.950000	-0.623439	172.203507	-25.374998	-6.047007	-25.374998	-6.047007	-0.383511	-17.910869
9.000000	-0.629949	170.618512	-25.242902	-7.776212	-25.242902	-7.776212	-0.387152	-19.654344
9.050000	-0.636634	169.030002	-25.098410	-9.514077	-25.098410	-9.514077	-0.391058	-21.386735
9.100000	-0.643509	167.437137	-24.941189	-11.262248	-24.941189	-11.262248	-0.395243	-23.108644
9.150000	-0.650595	165.839022	-24.770886	-13.022462	-24.770886	-13.022462	-0.399725	-24.820721
9.200000	-0.657945	164.233832	-24.585011	-14.798417	-24.585011	-14.798417	-0.404562	-26.522711
9.250000	-0.665505	162.622826	-24.388950	-16.587010	-24.388950	-16.587010	-0.409669	-28.218116
9.300000	-0.673351	161.003720	-24.178876	-18.392953	-24.178876	-18.392953	-0.415134	-29.905700
9.350000	-0.681610	159.372490	-23.949033	-20.223995	-23.949033	-20.223995	-0.421094	-31.585213
9.400000	-0.690202	157.731521	-23.706790	-22.074598	-23.706790	-22.074598	-0.427431	-33.260176
9.450000	-0.699150	156.080133	-23.452464	-23.945843	-23.452464	-23.945843	-0.434167	-34.931067
9.500000	-0.708700	154.411182	-23.176084	-25.850822	-23.176084	-25.850822	-0.441549	-36.597706
9.550000	-0.718850	152.725088	-22.881720	-27.787350	-22.881720	-27.787350	-0.449549	-38.262817
9.600000	-0.729578	151.022868	-22.573429	-29.752763	-22.573429	-29.752763	-0.458127	-39.927675
9.650000	-0.740997	149.301584	-22.249234	-31.751676	-22.249234	-31.751676	-0.467385	-41.593205
9.700000	-0.753644	147.547563	-21.894323	-33.805319	-21.894323	-33.805319	-0.477806	-43.263168
9.750000	-0.767295	145.768070	-21.522558	-35.899537	-21.522558	-35.899537	-0.489144	-44.938442
9.800000	-0.782058	143.960998	-21.134499	-38.036767	-21.134499	-38.036767	-0.501481	-46.620153
9.850000	-0.798640	142.110224	-20.716189	-40.239645	-20.716189	-40.239645	-0.515413	-48.313844
9.900000	-0.817487	140.208214	-20.266309	-42.515306	-20.266309	-42.515306	-0.531247	-50.023709
9.950000	-0.838539	138.258779	-19.794957	-44.855775	-19.794957	-44.855775	-0.548872	-51.749334
10.000000	-0.862047	136.257823	-19.303485	-47.265407	-19.303485	-47.265407	-0.568460	-53.492465
