! freq	dB(S11)	phase(S11)	dB(S12)	phase(S12)	
!     	dB(S21)	phase(S21)	dB(S22)	phase(S22)	
!S-par simulation data
#  GHz  S  DB  R 50
0.000000	-90.699272	0.000000	-0.000253	0.000000	-0.000253	0.000000	-90.699272	0.000000
0.050000	-45.033138	-90.986420	-0.001540	-1.532157	-0.001540	-1.532157	-45.039741	-91.571848
0.100000	-39.016056	-92.423751	-0.004732	-3.058042	-0.004732	-3.058042	-39.022791	-93.595374
0.150000	-35.499969	-93.761013	-0.008643	-4.576625	-0.008643	-4.576625	-35.506948	-95.519586
0.200000	-33.009033	-95.073786	-0.012552	-6.090217	-0.012552	-6.090217	-33.016405	-97.420432
0.250000	-31.080997	-96.377040	-0.016244	-7.600964	-0.016244	-7.600964	-31.088982	-99.313169
0.300000	-29.509982	-97.676477	-0.019756	-9.110268	-0.019756	-9.110268	-29.518902	-101.203568
0.350000	-28.185964	-98.975143	-0.023198	-10.618821	-0.023198	-10.618821	-28.196229	-103.094308
0.400000	-27.043577	-100.275171	-0.026663	-12.126849	-0.026663	-12.126849	-27.055719	-104.986586
0.450000	-26.041228	-101.578749	-0.030232	-13.634376	-0.030232	-13.634376	-26.055903	-106.880429
0.500000	-25.150338	-102.887259	-0.033950	-15.141385	-0.033950	-15.141385	-25.167991	-108.773814
0.550000	-24.351472	-104.200159	-0.037849	-16.647801	-0.037849	-16.647801	-24.371889	-110.662041
0.600000	-23.631800	-105.509772	-0.041959	-18.153507	-0.041959	-18.153507	-23.653067	-112.535762
0.650000	-22.980655	-106.793627	-0.046284	-19.658440	-0.046284	-19.658440	-22.998789	-114.384305
0.700000	-22.386681	-108.018773	-0.050826	-21.162529	-0.050826	-21.162529	-22.397974	-116.200572
0.750000	-21.835712	-109.172104	-0.055591	-22.665673	-0.055591	-22.665673	-21.841035	-117.986672
0.800000	-21.316188	-110.292234	-0.060575	-24.167809	-0.060575	-24.167809	-21.320394	-119.757183
0.850000	-20.824954	-111.423372	-0.065769	-25.668889	-0.065769	-25.668889	-20.831354	-121.528874
0.900000	-20.362319	-112.578817	-0.071164	-27.168868	-0.071164	-27.168868	-20.371254	-123.312053
0.950000	-19.927598	-113.753209	-0.076747	-28.667736	-0.076747	-28.667736	-19.938074	-125.109540
1.000000	-19.519607	-114.938955	-0.082519	-30.165377	-0.082519	-30.165377	-19.530432	-126.921350
1.050000	-19.136058	-116.128762	-0.088462	-31.661806	-0.088462	-31.661806	-19.146406	-128.744263
1.100000	-18.774877	-117.318443	-0.094564	-33.157001	-0.094564	-33.157001	-18.784246	-130.575680
1.150000	-18.434168	-118.505418	-0.100812	-34.650949	-0.100812	-34.650949	-18.442290	-132.413539
1.200000	-18.112254	-119.688096	-0.107193	-36.143640	-0.107193	-36.143640	-18.119005	-134.256371
1.250000	-17.807661	-120.865465	-0.113695	-37.635073	-0.113695	-37.635073	-17.813002	-136.103193
1.300000	-17.519158	-122.036789	-0.120305	-39.125240	-0.120305	-39.125240	-17.523095	-137.953425
1.350000	-17.245537	-123.201672	-0.127009	-40.614163	-0.127009	-40.614163	-17.248104	-139.806688
1.400000	-16.985787	-124.359789	-0.133793	-42.101858	-0.133793	-42.101858	-16.987027	-141.662832
1.450000	-16.739008	-125.510889	-0.140645	-43.588348	-0.140645	-43.588348	-16.738968	-143.521843
1.500000	-16.504392	-126.654777	-0.147551	-45.073658	-0.147551	-45.073658	-16.503121	-145.383805
1.550000	-16.281216	-127.791285	-0.154499	-46.557821	-0.154499	-46.557821	-16.278758	-147.248876
1.600000	-16.068870	-128.920210	-0.161476	-48.040864	-0.161476	-48.040864	-16.065265	-149.117297
1.650000	-15.866732	-130.041461	-0.168470	-49.522835	-0.168470	-49.522835	-15.862014	-150.989310
1.700000	-15.674250	-131.154935	-0.175469	-51.003783	-0.175469	-51.003783	-15.668449	-152.865196
1.750000	-15.490934	-132.260518	-0.182461	-52.483758	-0.182461	-52.483758	-15.484073	-154.745273
1.800000	-15.316335	-133.358092	-0.189435	-53.962814	-0.189435	-53.962814	-15.308432	-156.629882
1.850000	-15.150045	-134.447541	-0.196381	-55.441008	-0.196381	-55.441008	-15.141109	-158.519386
1.900000	-14.991724	-135.528678	-0.203287	-56.918396	-0.203287	-56.918396	-14.981761	-160.414208
1.950000	-14.841025	-136.601374	-0.210145	-58.395043	-0.210145	-58.395043	-14.830030	-162.314753
2.000000	-14.697587	-137.665566	-0.216944	-59.871024	-0.216944	-59.871024	-14.685551	-164.221388
2.050000	-14.561113	-138.721117	-0.223677	-61.346410	-0.223677	-61.346410	-14.548021	-166.134536
2.100000	-14.431328	-139.767881	-0.230334	-62.821274	-0.230334	-62.821274	-14.417157	-168.054631
2.150000	-14.307978	-140.805701	-0.236909	-64.295691	-0.236909	-64.295691	-14.292696	-169.982117
2.200000	-14.190824	-141.834412	-0.243394	-65.769740	-0.243394	-65.769740	-14.174394	-171.917451
2.250000	-14.079644	-142.853837	-0.249782	-67.243500	-0.249782	-67.243500	-14.062022	-173.861098
2.300000	-13.974232	-143.863786	-0.256068	-68.717053	-0.256068	-68.717053	-13.955365	-175.813534
2.350000	-13.874391	-144.864057	-0.262246	-70.190482	-0.262246	-70.190482	-13.854220	-177.775243
2.400000	-13.779938	-145.854434	-0.268311	-71.663872	-0.268311	-71.663872	-13.758396	-179.746719
2.450000	-13.690703	-146.834688	-0.274259	-73.137309	-0.274259	-73.137309	-13.667714	178.271537
2.500000	-13.606520	-147.804575	-0.280086	-74.610880	-0.280086	-74.610880	-13.582003	176.279017
2.550000	-13.527323	-148.763596	-0.285785	-76.084680	-0.285785	-76.084680	-13.501186	174.274944
2.600000	-13.452875	-149.711702	-0.291358	-77.558794	-0.291358	-77.558794	-13.425018	172.259029
2.650000	-13.383033	-150.648599	-0.296802	-79.033313	-0.296802	-79.033313	-13.353352	170.230739
2.700000	-13.317664	-151.573980	-0.302116	-80.508324	-0.302116	-80.508324	-13.286044	168.189536
2.750000	-13.256635	-152.487521	-0.307298	-81.983919	-0.307298	-81.983919	-13.222955	166.134874
2.800000	-13.199821	-153.388879	-0.312349	-83.460187	-0.312349	-83.460187	-13.163953	164.066203
2.850000	-13.147100	-154.277699	-0.317269	-84.937216	-0.317269	-84.937216	-13.108906	161.982966
2.900000	-13.098351	-155.153605	-0.322058	-86.415098	-0.322058	-86.415098	-13.057686	159.884602
2.950000	-13.053457	-156.016210	-0.326719	-87.893921	-0.326719	-87.893921	-13.010170	157.770546
3.000000	-13.012301	-156.865109	-0.331252	-89.373772	-0.331252	-89.373772	-12.966231	155.640227
3.050000	-12.974768	-157.699881	-0.335661	-90.854740	-0.335661	-90.854740	-12.925748	153.493073
3.100000	-12.940742	-158.520093	-0.339949	-92.336911	-0.339949	-92.336911	-12.888598	151.328510
3.150000	-12.910143	-159.325128	-0.344117	-93.820387	-0.344117	-93.820387	-12.854690	149.145761
3.200000	-12.882850	-160.114512	-0.348171	-95.305253	-0.348171	-95.305253	-12.823897	146.944228
3.250000	-12.858711	-160.887934	-0.352115	-96.791581	-0.352115	-96.791581	-12.796060	144.723536
3.300000	-12.837603	-161.644915	-0.355956	-98.279450	-0.355956	-98.279450	-12.771052	142.483111
3.350000	-12.819406	-162.384964	-0.359698	-99.768942	-0.359698	-99.768942	-12.748744	140.222390
3.400000	-12.803991	-163.107586	-0.363348	-101.260135	-0.363348	-101.260135	-12.729003	137.940811
3.450000	-12.791230	-163.812283	-0.366913	-102.753106	-0.366913	-102.753106	-12.711694	135.637826
3.500000	-12.780988	-164.498553	-0.370400	-104.247928	-0.370400	-104.247928	-12.696677	133.312896
3.550000	-12.773127	-165.165897	-0.373815	-105.744675	-0.373815	-105.744675	-12.683808	130.965497
3.600000	-12.767503	-165.813822	-0.377168	-107.243416	-0.377168	-107.243416	-12.672939	128.595124
3.650000	-12.763966	-166.441842	-0.380466	-108.744220	-0.380466	-108.744220	-12.663917	126.201289
3.700000	-12.762362	-167.049481	-0.383719	-110.247152	-0.383719	-110.247152	-12.656584	123.783534
3.750000	-12.762528	-167.636281	-0.386935	-111.752274	-0.386935	-111.752274	-12.650775	121.341426
3.800000	-12.764327	-168.201334	-0.390124	-113.259697	-0.390124	-113.259697	-12.646346	118.874020
3.850000	-12.767544	-168.744682	-0.393297	-114.769429	-0.393297	-114.769429	-12.643087	116.381488
3.900000	-12.771996	-169.265947	-0.396465	-116.281525	-0.396465	-116.281525	-12.640816	113.863517
3.950000	-12.777492	-169.764788	-0.399637	-117.796036	-0.399637	-117.796036	-12.639345	111.319842
4.000000	-12.783836	-170.240909	-0.402825	-119.313007	-0.402825	-119.313007	-12.638480	108.750253
4.050000	-12.790821	-170.694062	-0.406041	-120.832484	-0.406041	-120.832484	-12.638020	106.154601
4.100000	-12.798235	-171.124057	-0.409295	-122.354506	-0.409295	-122.354506	-12.637760	103.532803
4.150000	-12.805859	-171.530769	-0.412601	-123.879110	-0.412601	-123.879110	-12.637490	100.884850
4.200000	-12.813466	-171.914142	-0.415969	-125.406330	-0.415969	-125.406330	-12.636993	98.210811
4.250000	-12.820825	-172.274200	-0.419413	-126.936195	-0.419413	-126.936195	-12.636051	95.510843
4.300000	-12.827698	-172.611052	-0.422945	-128.468729	-0.422945	-128.468729	-12.634442	92.785189
4.350000	-12.833844	-172.924900	-0.426578	-130.003954	-0.426578	-130.003954	-12.631941	90.034195
4.400000	-12.839002	-173.215803	-0.430326	-131.541916	-0.430326	-131.541916	-12.628307	87.258040
4.450000	-12.842916	-173.484187	-0.434201	-133.082629	-0.434201	-133.082629	-12.623307	84.457300
4.500000	-12.845348	-173.730827	-0.438217	-134.626072	-0.438217	-134.626072	-12.616729	81.632915
4.550000	-12.846049	-173.956368	-0.442386	-136.172248	-0.442386	-136.172248	-12.608352	78.785669
4.600000	-12.844772	-174.161578	-0.446722	-137.721158	-0.446722	-137.721158	-12.597958	75.916464
4.650000	-12.841274	-174.347347	-0.451236	-139.272796	-0.451236	-139.272796	-12.585338	73.026314
4.700000	-12.835318	-174.514692	-0.455943	-140.827154	-0.455943	-140.827154	-12.570288	70.116353
4.750000	-12.826674	-174.664757	-0.460855	-142.384217	-0.460855	-142.384217	-12.552616	67.187825
4.800000	-12.815124	-174.798808	-0.465986	-143.943967	-0.465986	-143.943967	-12.532141	64.242085
4.850000	-12.800459	-174.918232	-0.471346	-145.506382	-0.471346	-145.506382	-12.508693	61.280595
4.900000	-12.782486	-175.024532	-0.476950	-147.071435	-0.476950	-147.071435	-12.482120	58.304912
4.950000	-12.761027	-175.119322	-0.482809	-148.639094	-0.482809	-148.639094	-12.452284	55.316684
5.000000	-12.735923	-175.204311	-0.488936	-150.209323	-0.488936	-150.209323	-12.419068	52.317640
5.050000	-12.706945	-175.281169	-0.495347	-151.782136	-0.495347	-151.782136	-12.382289	49.309424
5.100000	-12.674057	-175.351993	-0.502049	-153.357432	-0.502049	-153.357432	-12.341946	46.294129
5.150000	-12.637163	-175.418725	-0.509053	-154.935163	-0.509053	-154.935163	-12.297982	43.273653
5.200000	-12.596193	-175.483353	-0.516368	-156.515275	-0.516368	-156.515275	-12.250362	40.249925
5.250000	-12.551100	-175.547898	-0.524006	-158.097712	-0.524006	-158.097712	-12.199073	37.224883
5.300000	-12.501861	-175.614390	-0.531975	-159.682413	-0.531975	-159.682413	-12.144125	34.200465
5.350000	-12.448481	-175.684859	-0.540284	-161.269314	-0.540284	-161.269314	-12.085548	31.178594
5.400000	-12.390986	-175.761311	-0.548942	-162.858348	-0.548942	-162.858348	-12.023395	28.161160
5.450000	-12.329430	-175.845715	-0.557958	-164.449444	-0.557958	-164.449444	-11.957739	25.150007
5.500000	-12.263887	-175.939989	-0.567337	-166.042527	-0.567337	-166.042527	-11.888672	22.146925
5.550000	-12.194454	-176.045980	-0.577086	-167.637522	-0.577086	-167.637522	-11.816306	19.153629
5.600000	-12.121251	-176.165455	-0.587212	-169.234348	-0.587212	-169.234348	-11.740766	16.171758
5.650000	-12.044368	-176.300268	-0.597724	-170.832944	-0.597724	-170.832944	-11.662157	13.203015
5.700000	-11.963964	-176.452036	-0.608626	-172.433222	-0.608626	-172.433222	-11.580638	10.248897
5.750000	-11.880255	-176.622042	-0.619919	-174.035077	-0.619919	-174.035077	-11.496417	7.310600
5.800000	-11.793424	-176.811610	-0.631604	-175.638423	-0.631604	-175.638423	-11.409672	4.389353
5.850000	-11.703666	-177.021942	-0.643684	-177.243173	-0.643684	-177.243173	-11.320589	1.486274
5.900000	-11.611182	-177.254112	-0.656161	-178.849236	-0.656161	-178.849236	-11.229358	-1.397634
5.950000	-11.516182	-177.509065	-0.669034	179.543476	-0.669034	179.543476	-11.136174	-4.261481
6.000000	-11.418880	-177.787615	-0.682305	177.935054	-0.682305	177.935054	-11.041235	-7.104489
6.050000	-11.319490	-178.090454	-0.695972	176.325586	-0.695972	176.325586	-10.944740	-9.925990
6.100000	-11.218230	-178.418148	-0.710032	174.715163	-0.710032	174.715163	-10.846886	-12.725425
6.150000	-11.115317	-178.771145	-0.724485	173.103872	-0.724485	173.103872	-10.747868	-15.502337
6.200000	-11.010962	-179.149777	-0.739325	171.491802	-0.739325	171.491802	-10.647879	-18.256368
6.250000	-10.905376	-179.554273	-0.754549	169.879037	-0.754549	169.879037	-10.547106	-20.987254
6.300000	-10.798717	-179.985321	-0.770161	168.265652	-0.770161	168.265652	-10.445698	-23.694310
6.350000	-10.691237	179.557614	-0.786145	166.651744	-0.786145	166.651744	-10.343873	-26.377949
6.400000	-10.583129	179.074595	-0.802496	165.037392	-0.802496	165.037392	-10.241801	-29.038161
6.450000	-10.474576	178.565763	-0.819207	163.422675	-0.819207	163.422675	-10.139644	-31.675001
6.500000	-10.365753	178.031329	-0.836271	161.807667	-0.836271	161.807667	-10.037556	-34.288593
6.550000	-10.256829	177.471570	-0.853678	160.192440	-0.853678	160.192440	-9.935684	-36.879115
6.600000	-10.147961	176.886819	-0.871420	158.577062	-0.871420	158.577062	-9.834166	-39.446801
6.650000	-10.039298	176.277462	-0.889487	156.961597	-0.889487	156.961597	-9.733133	-41.991930
6.700000	-9.930980	175.643926	-0.907870	155.346108	-0.907870	155.346108	-9.632705	-44.514825
6.750000	-9.823139	174.986678	-0.926557	153.730650	-0.926557	153.730650	-9.532996	-47.015846
6.800000	-9.715895	174.306218	-0.945539	152.115277	-0.945539	152.115277	-9.434112	-49.495385
6.850000	-9.609362	173.603071	-0.964804	150.500039	-0.964804	150.500039	-9.336148	-51.953867
6.900000	-9.503640	172.877550	-0.984342	148.884981	-0.984342	148.884981	-9.239195	-54.391519
6.950000	-9.398826	172.130242	-1.004141	147.270145	-1.004141	147.270145	-9.143336	-56.808827
7.000000	-9.295014	171.361967	-1.024186	145.655565	-1.024186	145.655565	-9.048647	-59.206505
7.050000	-9.192282	170.573313	-1.044465	144.041271	-1.044465	144.041271	-8.955194	-61.585058
7.100000	-9.090700	169.764876	-1.064966	142.427289	-1.064966	142.427289	-8.863036	-63.945003
7.150000	-8.990332	168.937252	-1.085674	140.813641	-1.085674	140.813641	-8.772225	-66.286868
7.200000	-8.891234	168.091041	-1.106578	139.200344	-1.106578	139.200344	-8.682809	-68.611191
7.250000	-8.793455	167.226836	-1.127665	137.587410	-1.127665	137.587410	-8.594828	-70.918516
7.300000	-8.697039	166.345230	-1.148922	135.974847	-1.148922	135.974847	-8.508318	-73.209392
7.350000	-8.602023	165.446808	-1.170335	134.362658	-1.170335	134.362658	-8.423306	-75.484372
7.400000	-8.508439	164.532146	-1.191891	132.750842	-1.191891	132.750842	-8.339819	-77.744012
7.450000	-8.416311	163.601813	-1.213579	131.139394	-1.213579	131.139394	-8.257876	-79.988870
7.500000	-8.325662	162.656365	-1.235385	129.528302	-1.235385	129.528302	-8.177492	-82.219504
7.550000	-8.236520	161.696045	-1.257298	127.917560	-1.257298	127.917560	-8.098696	-84.436189
7.600000	-8.148885	160.721713	-1.279303	126.307143	-1.279303	126.307143	-8.021480	-86.639792
7.650000	-8.062766	159.733891	-1.301389	124.697026	-1.301389	124.697026	-7.945845	-88.830869
7.700000	-7.978165	158.733083	-1.323543	123.087184	-1.323543	123.087184	-7.871791	-91.009975
7.750000	-7.895081	157.719782	-1.345755	121.477586	-1.345755	121.477586	-7.799315	-93.177663
7.800000	-7.813512	156.694466	-1.368012	119.868198	-1.368012	119.868198	-7.728410	-95.334485
7.850000	-7.733450	155.657598	-1.390303	118.258981	-1.390303	118.258981	-7.659067	-97.480987
7.900000	-7.654885	154.609627	-1.412618	116.649895	-1.412618	116.649895	-7.591273	-99.617716
7.950000	-7.577806	153.550986	-1.434946	115.040893	-1.434946	115.040893	-7.525014	-101.745213
8.000000	-7.502197	152.482095	-1.457277	113.431928	-1.457277	113.431928	-7.460273	-103.864017
8.050000	-7.428042	151.403358	-1.479600	111.822947	-1.479600	111.822947	-7.397031	-105.974666
8.100000	-7.355321	150.315166	-1.501906	110.213895	-1.501906	110.213895	-7.335268	-108.077691
8.150000	-7.284022	149.217799	-1.524186	108.604711	-1.524186	108.604711	-7.274972	-110.173552
8.200000	-7.214122	148.111631	-1.546430	106.995331	-1.546430	106.995331	-7.216118	-112.262791
8.250000	-7.145588	146.997108	-1.568630	105.385690	-1.568630	105.385690	-7.158669	-114.346009
8.300000	-7.078393	145.874562	-1.590779	103.775719	-1.590779	103.775719	-7.102598	-116.423725
8.350000	-7.012535	144.744100	-1.612865	102.165332	-1.612865	102.165332	-7.047903	-118.496324
8.400000	-6.947902	143.606781	-1.634894	100.554505	-1.634894	100.554505	-6.994455	-120.564765
8.450000	-6.884588	142.461779	-1.656841	98.943075	-1.656841	98.943075	-6.942373	-122.628915
8.500000	-6.822458	141.310322	-1.678715	97.331040	-1.678715	97.331040	-6.891494	-124.689787
8.550000	-6.761539	140.152162	-1.700501	95.718263	-1.700501	95.718263	-6.841859	-126.747630
8.600000	-6.701786	138.987682	-1.722197	94.104669	-1.722197	94.104669	-6.793414	-128.802993
8.650000	-6.643137	137.817368	-1.743804	92.490199	-1.743804	92.490199	-6.746089	-130.856451
8.700000	-6.585630	136.640887	-1.765303	90.874666	-1.765303	90.874666	-6.699933	-132.908329
8.750000	-6.529123	135.459339	-1.786714	89.258133	-1.786714	89.258133	-6.654777	-134.959292
8.800000	-6.473726	134.271789	-1.808002	87.640251	-1.808002	87.640251	-6.610758	-137.009672
8.850000	-6.419266	133.079566	-1.829198	86.021178	-1.829198	86.021178	-6.567666	-139.060018
8.900000	-6.365806	131.882085	-1.850276	84.400594	-1.850276	84.400594	-6.525581	-141.110815
8.950000	-6.313253	130.680004	-1.871251	82.778529	-1.871251	82.778529	-6.484392	-143.162466
9.000000	-6.261597	129.473325	-1.892117	81.154806	-1.892117	81.154806	-6.444085	-145.215466
9.050000	-6.210813	128.262133	-1.912872	79.529272	-1.912872	79.529272	-6.404632	-147.270293
9.100000	-6.160826	127.046928	-1.933530	77.901948	-1.933530	77.901948	-6.365941	-149.327231
9.150000	-6.111673	125.827306	-1.954073	76.272442	-1.954073	76.272442	-6.328052	-151.387048
9.200000	-6.063234	124.604118	-1.974531	74.640986	-1.974531	74.640986	-6.290823	-153.449671
9.250000	-6.015565	123.376764	-1.994881	73.007020	-1.994881	73.007020	-6.254311	-155.516158
9.300000	-5.968555	122.146033	-2.015154	71.370815	-2.015154	71.370815	-6.218387	-157.586283
9.350000	-5.922221	120.911643	-2.035341	69.731947	-2.035341	69.731947	-6.183059	-159.660913
9.400000	-5.876507	119.673921	-2.055457	68.090428	-2.055457	68.090428	-6.148258	-161.740175
9.450000	-5.831382	118.432991	-2.075512	66.446118	-2.075512	66.446118	-6.113939	-163.824443
9.500000	-5.786833	117.188785	-2.095512	64.798705	-2.095512	64.798705	-6.080076	-165.914387
9.550000	-5.742793	115.941774	-2.115478	63.148399	-2.115478	63.148399	-6.046589	-168.009702
9.600000	-5.699282	114.691553	-2.135411	61.494496	-2.135411	61.494496	-6.013474	-170.111768
9.650000	-5.656217	113.438784	-2.155339	59.837490	-2.155339	59.837490	-5.980646	-172.219698
9.700000	-5.613611	112.183090	-2.175271	58.176630	-2.175271	58.176630	-5.948084	-174.334948
9.750000	-5.571406	110.924930	-2.195228	56.512256	-2.195228	56.512256	-5.915728	-176.456877
9.800000	-5.529587	109.664203	-2.215230	54.843931	-2.215230	54.843931	-5.883535	-178.586312
9.850000	-5.488125	108.401049	-2.235298	53.171584	-2.235298	53.171584	-5.851459	179.276634
9.900000	-5.446986	107.135652	-2.255455	51.495229	-2.255455	51.495229	-5.819454	177.132026
9.950000	-5.406156	105.867881	-2.275730	49.814314	-2.275730	49.814314	-5.787468	174.978880
10.000000	-5.365595	104.598159	-2.296137	48.129376	-2.296137	48.129376	-5.755472	172.818261
