! freq	dB(S11)	phase(S11)	dB(S12)	phase(S12)	
!     	dB(S21)	phase(S21)	dB(S22)	phase(S22)	
!S-par simulation data
#  GHz  S  DB  R 50
0.000000	-78.227012	0.000000	-0.001065	0.000000	-0.001065	0.000000	-78.227012	0.000000
0.050000	-22.079748	-100.300363	-0.039838	-10.546452	-0.039838	-10.546452	-22.089756	-100.940531
0.100000	-16.275152	-110.508110	-0.135570	-20.858946	-0.135570	-20.858946	-16.280449	-111.822950
0.150000	-13.086152	-120.334807	-0.265818	-30.895265	-0.265818	-30.895265	-13.090961	-122.334777
0.200000	-11.017256	-129.771049	-0.417622	-40.635145	-0.417622	-40.635145	-11.023902	-132.423660
0.250000	-9.583340	-138.848892	-0.577836	-50.070475	-0.577836	-50.070475	-9.588018	-142.119130
0.300000	-8.575308	-147.600076	-0.732930	-59.199013	-0.732930	-59.199013	-8.571802	-151.485056
0.350000	-7.880390	-156.074931	-0.869101	-68.046680	-0.869101	-68.046680	-7.866527	-160.596288
0.400000	-7.417400	-164.351564	-0.977036	-76.681474	-0.977036	-76.681474	-7.396466	-169.519085
0.450000	-7.152438	-172.489918	-1.047996	-85.166122	-1.047996	-85.166122	-7.130309	-178.287238
0.500000	-7.063684	179.440429	-1.077906	-93.581657	-1.077906	-93.581657	-7.045926	173.051636
0.550000	-7.144562	171.369619	-1.066212	-102.006584	-1.066212	-102.006584	-7.134667	164.438716
0.600000	-7.402623	163.226848	-1.014767	-110.515209	-1.014767	-110.515209	-7.401490	155.809753
0.650000	-7.855520	154.946892	-0.928601	-119.173806	-0.928601	-119.173806	-7.861872	147.107662
0.700000	-8.553753	146.456875	-0.813171	-128.057630	-0.813171	-128.057630	-8.564523	138.283207
0.750000	-9.561431	137.710577	-0.679567	-137.216894	-0.679567	-137.216894	-9.572449	129.328954
0.800000	-10.994584	128.683730	-0.540723	-146.686305	-0.540723	-146.686305	-11.000315	120.305881
0.850000	-13.065648	119.394862	-0.411561	-156.473119	-0.411561	-156.473119	-13.056997	111.436311
0.900000	-16.235319	109.948963	-0.307530	-166.550222	-0.307530	-166.550222	-16.187845	103.436262
0.950000	-21.918963	100.799979	-0.242478	-176.853325	-0.242478	-176.853325	-21.683874	99.698242
1.000000	-39.898973	168.023377	-0.226222	172.714616	-0.226222	172.714616	-33.096675	158.687384
1.050000	-22.485644	-102.580240	-0.262524	162.270627	-0.262524	162.270627	-22.187670	-130.552277
1.100000	-16.491722	-111.673570	-0.348220	151.932987	-0.348220	151.932987	-16.414060	-133.623154
1.150000	-13.208152	-121.150550	-0.473877	141.802044	-0.473877	141.802044	-13.170520	-141.512675
1.200000	-11.073805	-130.494703	-0.625694	131.946321	-0.625694	131.946321	-11.050518	-150.349101
1.250000	-9.598974	-139.591566	-0.787914	122.396846	-0.787914	122.396846	-9.582876	-159.344742
1.300000	-8.561661	-148.419641	-0.945030	113.148966	-0.945030	113.148966	-8.549810	-168.250482
1.350000	-7.844140	-157.000871	-1.083024	104.170995	-1.083024	104.170995	-7.834769	-176.986638
1.400000	-7.371746	-165.392333	-1.191467	95.401839	-1.191467	95.401839	-7.363439	174.447408
1.450000	-7.104097	-173.661666	-1.262643	86.773628	-1.262643	86.773628	-7.095472	166.022267
1.500000	-7.028029	178.111131	-1.289880	78.209531	-1.289880	78.209531	-7.017510	157.695747
1.550000	-7.127790	169.837090	-1.274145	69.624032	-1.274145	69.624032	-7.113605	149.413807
1.600000	-7.423513	161.418401	-1.214804	60.929401	-1.214804	60.929401	-7.403193	141.136645
1.650000	-7.938400	152.762100	-1.117987	52.046167	-1.117987	52.046167	-7.908345	132.845213
1.700000	-8.723416	143.770880	-0.992092	42.901652	-0.992092	42.901652	-8.677557	124.567601
1.750000	-9.874198	134.326465	-0.848497	33.427873	-0.848497	33.427873	-9.800579	116.433164
1.800000	-11.547946	124.290366	-0.703044	23.589886	-0.703044	23.589886	-11.419353	108.801326
1.850000	-14.060277	113.384923	-0.573743	13.384506	-0.573743	13.384506	-13.798611	102.666976
1.900000	-18.195236	100.645279	-0.478793	2.855074	-0.478793	2.855074	-17.473175	101.337809
1.950000	-27.213110	73.808258	-0.434386	-7.911159	-0.434386	-7.911159	-23.024319	121.770298
2.000000	-26.671216	-72.417006	-0.449437	-18.784337	-0.449437	-18.784337	-22.663397	-178.849115
2.050000	-17.877328	-97.761253	-0.524470	-29.622969	-0.524470	-29.622969	-17.104229	-160.114329
2.100000	-13.745175	-110.535577	-0.654910	-40.282758	-0.654910	-40.282758	-13.431253	-162.000979
2.150000	-11.198466	-121.632402	-0.824008	-50.662901	-0.824008	-50.662901	-11.024884	-168.295049
2.200000	-9.484705	-131.911980	-1.013406	-60.701128	-1.013406	-60.701128	-9.369774	-175.996353
2.250000	-8.295834	-141.635242	-1.203211	-70.387943	-1.203211	-70.387943	-8.209412	175.866296
2.300000	-7.479201	-150.933969	-1.374641	-79.749786	-1.374641	-79.749786	-7.406954	167.655035
2.350000	-6.946458	-159.929297	-1.511677	-88.852401	-1.511677	-88.852401	-6.880095	159.509678
2.400000	-6.643842	-168.748187	-1.603257	-97.788006	-1.603257	-97.788006	-6.577462	151.464444
2.450000	-6.549439	-177.521641	-1.641180	-106.659642	-1.641180	-106.659642	-6.477518	143.511980
2.500000	-6.661189	173.603244	-1.621750	-115.584265	-1.621750	-115.584265	-6.577168	135.631771
2.550000	-6.996148	164.467449	-1.546514	-124.682708	-1.546514	-124.682708	-6.890684	127.817776
2.600000	-7.608936	154.868918	-1.420141	-134.090480	-1.420141	-134.090480	-7.465893	120.123564
2.650000	-8.587383	144.573493	-1.255846	-143.927980	-1.255846	-143.927980	-8.375888	112.736933
2.700000	-10.107777	133.203913	-1.073076	-154.311474	-1.073076	-154.311474	-9.757039	106.208082
2.750000	-12.501924	120.060798	-0.899397	-165.293538	-0.899397	-165.293538	-11.817114	101.959038
2.800000	-16.609935	102.574898	-0.767889	-176.876920	-0.767889	-176.876920	-14.838765	104.410555
2.850000	-24.928671	57.659490	-0.712788	171.042668	-0.712788	171.042668	-18.121606	126.254700
2.900000	-21.583364	-55.993590	-0.758085	158.680741	-0.758085	158.680741	-17.018546	162.723680
2.950000	-14.541733	-85.198866	-0.914759	146.315080	-0.914759	146.315080	-13.156464	175.831371
3.000000	-10.797068	-101.480313	-1.169211	134.230308	-1.169211	134.230308	-10.165405	174.642803
3.050000	-8.464112	-114.761819	-1.490779	122.632147	-1.490779	122.632147	-8.097519	168.727973
3.100000	-6.930325	-126.508527	-1.839944	111.636854	-1.839944	111.636854	-6.681125	161.189954
3.150000	-5.907340	-137.248491	-2.174719	101.220822	-2.174719	101.220822	-5.717130	153.201356
3.200000	-5.251505	-147.268006	-2.456483	91.286487	-2.456483	91.286487	-5.090372	145.181302
3.250000	-4.876181	-156.852086	-2.656247	81.647672	-2.656247	81.647672	-4.725142	137.257071
3.300000	-4.748895	-166.277966	-2.750364	72.078505	-2.750364	72.078505	-4.591252	129.427354
3.350000	-4.890696	-175.884199	-2.716952	62.273338	-2.716952	62.273338	-4.704769	121.644909
3.400000	-5.374921	173.901844	-2.548760	51.835120	-2.548760	51.835120	-5.123386	113.897837
3.450000	-6.398556	162.515572	-2.254793	40.236341	-2.254793	40.236341	-5.995786	106.433130
3.500000	-8.449999	149.210903	-1.882807	26.812584	-1.882807	26.812584	-7.631746	100.538890
3.550000	-13.120401	132.861332	-1.557068	10.818041	-1.557068	10.818041	-10.548932	102.252837
3.600000	-35.775823	35.810857	-1.516454	-8.005126	-1.516454	-8.005126	-13.080969	131.303533
3.650000	-11.874050	-82.708954	-2.045265	-28.591837	-2.045265	-28.591837	-9.269180	158.768210
3.700000	-6.230346	-102.935329	-3.243417	-48.510053	-3.243417	-48.510053	-5.412163	156.562270
3.750000	-3.628480	-119.897052	-4.917315	-65.682897	-4.917315	-65.682897	-3.240153	146.777549
3.800000	-2.290990	-133.496598	-6.782351	-79.628927	-6.782351	-79.628927	-2.065284	136.701378
3.850000	-1.560846	-144.293151	-8.644522	-90.831251	-8.644522	-90.831251	-1.413116	127.807029
3.900000	-1.141842	-152.967482	-10.400043	-99.944967	-10.400043	-99.944967	-1.037047	120.172616
3.950000	-0.881078	-160.196090	-12.044189	-107.633557	-12.044189	-107.633557	-0.802996	113.501846
4.000000	-0.713191	-166.342486	-13.559958	-114.254950	-13.559958	-114.254950	-0.652717	107.592386
4.050000	-0.600306	-171.694604	-14.953820	-120.093036	-14.953820	-120.093036	-0.552138	102.260033
4.100000	-0.522764	-176.424215	-16.219358	-125.317033	-16.219358	-125.317033	-0.483540	97.390007
4.150000	-0.465742	179.270803	-17.400667	-130.121755	-17.400667	-130.121755	-0.433545	92.840153
4.200000	-0.423684	175.323985	-18.489096	-134.572158	-18.489096	-134.572158	-0.397182	88.563760
4.250000	-0.392014	171.662129	-19.492881	-138.739666	-19.492881	-138.739666	-0.370371	84.507665
4.300000	-0.367450	168.220784	-20.426772	-142.687448	-20.426772	-142.687448	-0.349934	80.623558
4.350000	-0.348378	164.975379	-21.280775	-146.441903	-21.280775	-146.441903	-0.333929	76.893689
4.400000	-0.333346	161.886935	-22.065721	-150.041677	-22.065721	-150.041677	-0.321503	73.289849
4.450000	-0.321959	158.953702	-22.760316	-153.485536	-22.760316	-153.485536	-0.312332	69.811719
4.500000	-0.312174	156.093875	-23.431914	-156.854931	-23.431914	-156.854931	-0.304606	66.393750
4.550000	-0.304239	153.320080	-24.055084	-160.136939	-24.055084	-160.136939	-0.298553	63.046428
4.600000	-0.298458	150.653623	-24.589792	-163.309447	-24.589792	-163.309447	-0.294483	59.788924
4.650000	-0.293617	148.035333	-25.094775	-166.432786	-25.094775	-166.432786	-0.291293	56.572506
4.700000	-0.289758	145.467741	-25.558928	-169.504366	-25.558928	-169.504366	-0.289029	53.399503
4.750000	-0.287206	142.967379	-25.946232	-172.507270	-25.946232	-172.507270	-0.288035	50.285685
4.800000	-0.285238	140.495540	-26.303343	-175.480964	-26.303343	-175.480964	-0.287628	47.197714
4.850000	-0.283866	138.052733	-26.624373	-178.424916	-26.624373	-178.424916	-0.287824	44.136152
4.900000	-0.283408	135.649402	-26.876127	178.671891	-26.876127	178.671891	-0.288993	41.111941
4.950000	-0.283373	133.260999	-27.097002	175.784343	-27.097002	175.784343	-0.290636	38.102529
5.000000	-0.283758	130.887243	-27.284678	172.912162	-27.284678	172.912162	-0.292752	35.107682
5.050000	-0.284815	128.530423	-27.413452	170.058267	-27.413452	170.058267	-0.295673	32.130830
5.100000	-0.286331	126.180406	-27.501195	167.212152	-27.501195	167.212152	-0.299175	29.162051
5.150000	-0.288298	123.833620	-27.547658	164.370176	-27.547658	164.370176	-0.303271	26.197946
5.200000	-0.290714	121.486580	-27.552602	161.528717	-27.552602	161.528717	-0.307981	23.235080
5.250000	-0.293582	119.135862	-27.515792	158.684124	-27.515792	158.684124	-0.313333	20.269948
5.300000	-0.296915	116.778072	-27.437008	155.832678	-27.437008	155.832678	-0.319361	17.298946
5.350000	-0.300820	114.407010	-27.307834	152.967500	-27.307834	152.967500	-0.326253	14.315512
5.400000	-0.305282	112.019122	-27.132073	150.084078	-27.132073	150.084078	-0.334007	11.315146
5.450000	-0.310316	109.611336	-26.911412	147.178324	-26.911412	147.178324	-0.342661	8.293829
5.500000	-0.315979	107.179698	-26.644939	144.244998	-26.644939	144.244998	-0.352312	5.246491
5.550000	-0.322340	104.719985	-26.331755	141.278307	-26.331755	141.278307	-0.363078	2.167552
5.600000	-0.329486	102.227652	-25.971008	138.271816	-25.971008	138.271816	-0.375095	-0.949156
5.650000	-0.337651	99.692350	-25.552975	135.211300	-25.552975	135.211300	-0.388734	-4.117178
5.700000	-0.347055	97.105517	-25.073023	132.083763	-25.073023	132.083763	-0.404327	-7.348848
5.750000	-0.357692	94.469076	-24.543807	128.889910	-24.543807	128.889910	-0.421848	-10.643452
5.800000	-0.370022	91.767240	-23.951370	125.606544	-23.951370	125.606544	-0.441989	-14.022946
5.850000	-0.384414	88.990687	-23.294303	122.218170	-23.294303	122.218170	-0.465276	-17.501946
5.900000	-0.401416	86.126355	-22.568288	118.703382	-22.568288	118.703382	-0.492493	-21.100664
5.950000	-0.421801	83.158134	-21.768249	115.035447	-21.768249	115.035447	-0.524726	-24.844368
6.000000	-0.446676	80.065782	-20.888192	111.180404	-20.888192	111.180404	-0.563509	-28.765203
6.050000	-0.477672	76.823379	-19.921013	107.094269	-19.921013	107.094269	-0.611073	-32.904857
6.100000	-0.517273	73.397071	-18.858274	102.718853	-18.858274	102.718853	-0.670768	-37.318541
6.150000	-0.568528	69.756015	-17.704096	97.998604	-17.704096	97.998604	-0.746641	-42.059020
6.200000	-0.639094	65.813776	-16.420233	92.783591	-16.420233	92.783591	-0.848874	-47.268499
6.250000	-0.739076	61.498137	-15.006020	86.936920	-15.006020	86.936920	-0.990700	-53.076562
6.300000	-0.887518	56.693259	-13.447540	80.230150	-13.447540	80.230150	-1.197102	-59.698477
6.350000	-1.120022	51.244533	-11.733575	72.320184	-11.733575	72.320184	-1.515144	-67.454597
6.400000	-1.506447	44.974479	-9.865094	62.687472	-9.865094	62.687472	-2.039356	-76.820806
6.450000	-2.179115	37.824489	-7.889571	50.642024	-7.889571	50.642024	-2.960072	-88.398384
6.500000	-3.429705	30.359299	-5.907415	35.114514	-5.907415	35.114514	-4.759945	-102.986302
6.550000	-5.668616	26.109057	-4.213524	15.569105	-4.213524	15.569105	-8.632126	-120.072931
6.600000	-8.495667	35.661304	-3.195586	-6.858623	-3.195586	-6.858623	-19.614657	-123.976531
6.650000	-8.553314	57.553675	-3.003921	-28.930835	-3.003921	-28.930835	-15.207138	-2.723109
6.700000	-6.520331	65.388665	-3.361971	-47.940049	-3.361971	-47.940049	-8.662059	-14.393275
6.750000	-5.023952	63.079243	-3.888868	-63.492002	-3.888868	-63.492002	-6.162940	-28.233484
6.800000	-4.183714	57.894835	-4.356232	-76.441544	-4.356232	-76.441544	-5.016174	-40.486706
6.850000	-3.763022	52.061181	-4.672543	-87.738660	-4.672543	-87.738660	-4.508822	-51.487281
6.900000	-3.606957	46.140139	-4.822392	-98.157517	-4.822392	-98.157517	-4.364684	-61.842287
6.950000	-3.655924	40.248095	-4.807201	-108.212730	-4.807201	-108.212730	-4.495381	-72.041665
7.000000	-3.875596	34.415508	-4.656437	-118.303880	-4.656437	-118.303880	-4.861688	-82.498055
7.050000	-4.281493	28.714640	-4.389275	-128.732582	-4.389275	-128.732582	-5.502689	-93.606786
7.100000	-4.907745	23.378932	-4.039180	-139.778092	-4.039180	-139.778092	-6.507511	-105.861016
7.150000	-5.776763	18.811113	-3.654301	-151.545602	-3.654301	-151.545602	-7.997281	-119.689327
7.200000	-6.928642	16.001089	-3.281166	-164.177762	-3.281166	-164.177762	-10.275022	-136.295430
7.250000	-8.282124	16.501552	-2.977063	-177.590602	-2.977063	-177.590602	-13.860803	-158.848072
7.300000	-9.494267	21.873154	-2.789070	168.453762	-2.789070	168.453762	-19.317734	157.678591
7.350000	-9.962842	31.053507	-2.740257	154.321817	-2.740257	154.321817	-19.626631	74.833576
7.400000	-9.432211	39.148118	-2.826949	140.403564	-2.826949	140.403564	-14.461183	31.323863
7.450000	-8.419199	42.739281	-3.014058	126.992004	-3.014058	126.992004	-11.189075	8.515649
7.500000	-7.422335	42.338607	-3.256465	114.221898	-3.256465	114.221898	-9.212485	-8.544729
7.550000	-6.636945	39.453619	-3.510089	102.106949	-3.510089	102.106949	-8.024151	-23.104549
7.600000	-6.082257	35.331966	-3.739959	90.518224	-3.739959	90.518224	-7.344874	-36.408965
7.650000	-5.734567	30.630828	-3.922454	79.302222	-3.922454	79.302222	-7.044448	-49.068703
7.700000	-5.566659	25.746534	-4.043204	68.273486	-4.043204	68.273486	-7.062937	-61.577133
7.750000	-5.535404	20.910757	-4.107118	57.255271	-4.107118	57.255271	-7.342998	-74.328913
7.800000	-5.642784	16.337907	-4.109726	46.073031	-4.109726	46.073031	-7.937569	-87.874753
7.850000	-5.859913	12.216491	-4.067554	34.586851	-4.067554	34.586851	-8.866908	-102.827535
7.900000	-6.162249	8.758002	-3.998020	22.691051	-3.998020	22.691051	-10.193633	-120.172062
7.950000	-6.510426	6.168495	-3.922502	10.324037	-3.922502	10.324037	-11.968658	-141.666556
8.000000	-6.844241	4.567072	-3.863816	-2.519772	-3.863816	-2.519772	-14.064769	-170.432779
8.050000	-7.080667	3.878504	-3.844925	-15.799533	-3.844925	-15.799533	-15.508004	149.848095
8.100000	-7.161426	3.622966	-3.877805	-29.387804	-3.877805	-29.387804	-14.904074	106.847468
8.150000	-7.080011	3.188451	-3.964114	-43.160546	-3.964114	-43.160546	-13.001217	72.667556
8.200000	-6.887820	2.062237	-4.095005	-57.024511	-4.095005	-57.024511	-11.215487	47.339529
8.250000	-6.668302	0.185039	-4.250603	-70.953409	-4.250603	-70.953409	-9.962873	26.508912
8.300000	-6.484593	-2.287190	-4.414363	-85.027718	-4.414363	-85.027718	-9.309547	8.006148
8.350000	-6.369266	-4.924228	-4.575753	-99.426718	-4.575753	-99.426718	-9.280896	-9.786822
8.400000	-6.310075	-7.234429	-4.742204	-114.404613	-4.742204	-114.404613	-10.006036	-28.167972
8.450000	-6.236648	-8.768898	-4.949505	-130.255691	-4.949505	-130.255691	-11.866089	-49.141232
8.500000	-6.015115	-9.520947	-5.268839	-147.153122	-5.268839	-147.153122	-15.779653	-79.257984
8.550000	-5.534512	-10.295905	-5.789424	-164.963474	-5.789424	-164.963474	-21.416549	-154.715938
8.600000	-4.808171	-12.453491	-6.605526	176.812458	-6.605526	176.812458	-14.980374	123.955241
8.650000	-4.020296	-16.729198	-7.745134	159.047345	-7.745134	159.047345	-9.661262	93.067591
8.700000	-3.349175	-22.746358	-9.153482	142.593089	-9.153482	142.593089	-6.607905	72.672929
8.750000	-2.853294	-29.641889	-10.730621	127.830187	-10.730621	127.830187	-4.725231	56.550899
8.800000	-2.517905	-36.816295	-12.378358	114.829413	-12.378358	114.829413	-3.517557	43.347556
8.850000	-2.302276	-43.943211	-14.023612	103.407093	-14.023612	103.407093	-2.715952	32.345432
8.900000	-2.168519	-50.896591	-15.621935	93.300284	-15.621935	93.300284	-2.166208	23.041932
8.950000	-2.088800	-57.650498	-17.150189	84.254858	-17.150189	84.254858	-1.777365	15.058779
9.000000	-2.044342	-64.218764	-18.598438	76.056552	-18.598438	76.056552	-1.494460	8.110045
9.050000	-2.022804	-70.626724	-19.964159	68.534824	-19.964159	68.534824	-1.283416	1.980418
9.100000	-2.016074	-76.899765	-21.248702	61.556993	-21.248702	61.556993	-1.122522	-3.492513
9.150000	-2.019362	-83.048518	-22.429136	55.061245	-22.429136	55.061245	-1.000360	-8.382558
9.200000	-2.027442	-89.112961	-23.563857	48.879869	-23.563857	48.879869	-0.901141	-12.890974
9.250000	-2.038724	-95.093185	-24.628584	42.999017	-24.628584	42.999017	-0.821882	-17.032718
9.300000	-2.051353	-100.998267	-25.627362	37.369154	-25.627362	37.369154	-0.757880	-20.865949
9.350000	-2.063988	-106.834380	-26.563997	31.950687	-26.563997	31.950687	-0.705750	-24.436942
9.400000	-2.075650	-112.605426	-27.441991	26.711581	-27.441991	26.711581	-0.663008	-27.782949
9.450000	-2.085620	-118.313568	-28.264528	21.625569	-28.264528	21.625569	-0.627797	-30.934301
9.500000	-2.093380	-123.959664	-29.034480	16.670814	-29.034480	16.670814	-0.598708	-33.915953
9.550000	-2.098418	-129.540349	-29.749255	11.833761	-29.749255	11.833761	-0.574861	-36.741993
9.600000	-2.100876	-135.063348	-30.425166	7.085341	-30.425166	7.085341	-0.554848	-39.447738
9.650000	-2.100500	-140.524751	-31.057637	2.418712	-31.057637	2.418712	-0.538298	-42.039205
9.700000	-2.097051	-145.919536	-31.643326	-2.173863	-31.643326	-2.173863	-0.524854	-44.522662
9.750000	-2.090202	-151.238223	-32.176872	-6.699170	-32.176872	-6.699170	-0.514273	-46.900713
9.800000	-2.080549	-156.490587	-32.673380	-11.178271	-32.673380	-11.178271	-0.505761	-49.199002
9.850000	-2.068207	-161.675411	-33.133127	-15.619606	-33.133127	-15.619606	-0.499073	-51.424406
9.900000	-2.053318	-166.791603	-33.556471	-20.031439	-33.556471	-20.031439	-0.494001	-53.583111
9.950000	-2.036045	-171.838220	-33.943809	-24.421954	-33.943809	-24.421954	-0.490364	-55.680685
10.000000	-2.016571	-176.814481	-34.295551	-28.799359	-34.295551	-28.799359	-0.488006	-57.722143
