! freq	dB(S11)	phase(S11)	dB(S12)	phase(S12)	
!     	dB(S21)	phase(S21)	dB(S22)	phase(S22)	
!S-par simulation data
#  GHz  S  DB  R 50
0.000000	-90.541778	0.000000	-0.000258	0.000000	-0.000258	0.000000	-90.541778	0.000000
0.050000	-44.286983	-91.031894	-0.002732	-1.583081	-0.002732	-1.583081	-44.282702	-91.304987
0.100000	-38.311931	-92.659961	-0.006056	-3.145877	-0.006056	-3.145877	-38.315604	-93.292494
0.150000	-34.830946	-94.270040	-0.008917	-4.703039	-0.008917	-4.703039	-34.835596	-95.236584
0.200000	-32.366607	-95.845480	-0.011817	-6.258652	-0.011817	-6.258652	-32.371070	-97.118506
0.250000	-30.458181	-97.378211	-0.014961	-7.812985	-0.014961	-7.812985	-30.462551	-98.950293
0.300000	-28.901891	-98.873596	-0.018394	-9.365895	-0.018394	-9.365895	-28.906274	-100.746793
0.350000	-27.589035	-100.341426	-0.022101	-10.917408	-0.022101	-10.917408	-27.593458	-102.520703
0.400000	-26.455073	-101.789212	-0.026070	-12.467589	-0.026070	-12.467589	-26.459520	-104.279648
0.450000	-25.458379	-103.222744	-0.030287	-14.016535	-0.030287	-14.016535	-25.462812	-106.028530
0.500000	-24.570559	-104.646000	-0.034745	-15.564325	-0.034745	-15.564325	-24.574928	-107.770357
0.550000	-23.771458	-106.061507	-0.039442	-17.110989	-0.039442	-17.110989	-23.775710	-109.506935
0.600000	-23.046084	-107.471032	-0.044372	-18.656546	-0.044372	-18.656546	-23.050174	-111.239534
0.650000	-22.383035	-108.875663	-0.049529	-20.200986	-0.049529	-20.200986	-22.386925	-112.969011
0.700000	-21.773483	-110.276017	-0.054908	-21.744272	-0.054908	-21.744272	-21.777151	-114.695969
0.750000	-21.210403	-111.672443	-0.060504	-23.286357	-0.060504	-23.286357	-21.213837	-116.420884
0.800000	-20.688121	-113.065094	-0.066308	-24.827186	-0.066308	-24.827186	-20.691323	-118.144145
0.850000	-20.202022	-114.453972	-0.072310	-26.366694	-0.072310	-26.366694	-20.205003	-119.866078
0.900000	-19.748284	-115.838984	-0.078499	-27.904816	-0.078499	-27.904816	-19.751063	-121.586970
0.950000	-19.323608	-117.220038	-0.084861	-29.441509	-0.084861	-29.441509	-19.326207	-123.307093
1.000000	-18.925257	-118.596966	-0.091381	-30.976720	-0.091381	-30.976720	-18.927701	-125.026684
1.050000	-18.550896	-119.969584	-0.098044	-32.510405	-0.098044	-32.510405	-18.553205	-126.745964
1.100000	-18.198515	-121.337702	-0.104835	-34.042521	-0.104835	-34.042521	-18.200705	-128.465144
1.150000	-17.866375	-122.701138	-0.111737	-35.573036	-0.111737	-35.573036	-17.868452	-130.184427
1.200000	-17.552962	-124.059722	-0.118734	-37.101921	-0.118734	-37.101921	-17.554921	-131.904011
1.250000	-17.256946	-125.413307	-0.125807	-38.629156	-0.125807	-38.629156	-17.258770	-133.624095
1.300000	-16.977255	-126.761696	-0.132942	-40.154703	-0.132942	-40.154703	-16.978912	-135.344889
1.350000	-16.712753	-128.104872	-0.140120	-41.678579	-0.140120	-41.678579	-16.714199	-137.066587
1.400000	-16.462514	-129.442766	-0.147325	-43.200784	-0.147325	-43.200784	-16.463695	-138.789396
1.450000	-16.225709	-130.775336	-0.154543	-44.721328	-0.154543	-44.721328	-16.226563	-140.513527
1.500000	-16.001591	-132.102550	-0.161757	-46.240226	-0.161757	-46.240226	-16.002051	-142.239201
1.550000	-15.789482	-133.424385	-0.168954	-47.757505	-0.168954	-47.757505	-15.789482	-143.966647
1.600000	-15.588766	-134.740817	-0.176122	-49.273200	-0.176122	-49.273200	-15.588244	-145.696106
1.650000	-15.398883	-136.051811	-0.183247	-50.787357	-0.183247	-50.787357	-15.397783	-147.427830
1.700000	-15.219405	-137.357246	-0.190318	-52.300012	-0.190318	-52.300012	-15.217682	-149.162121
1.750000	-15.049747	-138.657156	-0.197323	-53.811259	-0.197323	-53.811259	-15.047367	-150.899215
1.800000	-14.889560	-139.951387	-0.204251	-55.321158	-0.204251	-55.321158	-14.886501	-152.639446
1.850000	-14.738314	-141.239961	-0.211093	-56.829822	-0.211093	-56.829822	-14.734566	-154.383052
1.900000	-14.595800	-142.522619	-0.217836	-58.337312	-0.217836	-58.337312	-14.591366	-156.130448
1.950000	-14.461687	-143.799221	-0.224467	-59.843730	-0.224467	-59.843730	-14.456580	-157.881996
2.000000	-14.335606	-145.069681	-0.230979	-61.349191	-0.230979	-61.349191	-14.329846	-159.638025
2.050000	-14.217280	-146.333839	-0.237359	-62.853800	-0.237359	-62.853800	-14.210895	-161.398929
2.100000	-14.106457	-147.591524	-0.243596	-64.357663	-0.243596	-64.357663	-14.099479	-163.165122
2.150000	-14.002904	-148.842552	-0.249680	-65.860887	-0.249680	-65.860887	-13.995366	-164.937043
2.200000	-13.906410	-150.086734	-0.255600	-67.363578	-0.255600	-67.363578	-13.898344	-166.715154
2.250000	-13.816782	-151.323867	-0.261347	-68.865844	-0.261347	-68.865844	-13.808212	-168.499936
2.300000	-13.733843	-152.553740	-0.266911	-70.367792	-0.266911	-70.367792	-13.724786	-170.291888
2.350000	-13.657433	-153.776129	-0.272284	-71.869528	-0.272284	-71.869528	-13.647890	-172.091521
2.400000	-13.587404	-154.990798	-0.277457	-73.371160	-0.277457	-73.371160	-13.577360	-173.899347
2.450000	-13.523624	-156.197497	-0.282425	-74.872794	-0.282425	-74.872794	-13.513039	-175.715875
2.500000	-13.465972	-157.395960	-0.287179	-76.374539	-0.287179	-76.374539	-13.454784	-177.541600
2.550000	-13.414460	-158.585711	-0.291710	-77.876511	-0.291710	-77.876511	-13.402581	-179.377220
2.600000	-13.368867	-159.766624	-0.296018	-79.378815	-0.296018	-79.378815	-13.356189	178.777002
2.650000	-13.329104	-160.938372	-0.300099	-80.881564	-0.300099	-80.881564	-13.315504	176.920606
2.700000	-13.295091	-162.100602	-0.303950	-82.384866	-0.303950	-82.384866	-13.280437	175.053117
2.750000	-13.266759	-163.252937	-0.307568	-83.888833	-0.307568	-83.888833	-13.250915	173.174023
2.800000	-13.244045	-164.394967	-0.310953	-85.393579	-0.310953	-85.393579	-13.226880	171.282756
2.850000	-13.226895	-165.526253	-0.314102	-86.899214	-0.314102	-86.899214	-13.208283	169.378678
2.900000	-13.215260	-166.646316	-0.317017	-88.405852	-0.317017	-88.405852	-13.195085	167.461077
2.950000	-13.209102	-167.754644	-0.319698	-89.913606	-0.319698	-89.913606	-13.187250	165.529168
3.000000	-13.208384	-168.850679	-0.322147	-91.422589	-0.322147	-91.422589	-13.184748	163.582096
3.050000	-13.213079	-169.933820	-0.324366	-92.932915	-0.324366	-92.932915	-13.187548	161.618944
3.100000	-13.223162	-171.003417	-0.326359	-94.444694	-0.326359	-94.444694	-13.195622	159.638742
3.150000	-13.238672	-172.058602	-0.328126	-95.958059	-0.328126	-95.958059	-13.208998	157.640261
3.200000	-13.259593	-173.098586	-0.329673	-97.473122	-0.329673	-97.473122	-13.227647	155.622392
3.250000	-13.285855	-174.122700	-0.331008	-98.989979	-0.331008	-98.989979	-13.251485	153.584211
3.300000	-13.317449	-175.130051	-0.332136	-100.508737	-0.332136	-100.508737	-13.280484	151.524544
3.350000	-13.354367	-176.119675	-0.333066	-102.029503	-0.333066	-102.029503	-13.314618	149.442165
3.400000	-13.396604	-177.090533	-0.333804	-103.552382	-0.333804	-103.552382	-13.353859	147.335792
3.450000	-13.444155	-178.041505	-0.334359	-105.077479	-0.334359	-105.077479	-13.398178	145.204076
3.500000	-13.497014	-178.971383	-0.334740	-106.604893	-0.334740	-106.604893	-13.447545	143.045605
3.550000	-13.555174	-179.878867	-0.334957	-108.134723	-0.334957	-108.134723	-13.501926	140.858893
3.600000	-13.618624	179.237442	-0.335022	-109.667065	-0.335022	-109.667065	-13.561284	138.642377
3.650000	-13.687350	178.379046	-0.334944	-111.202011	-0.334944	-111.202011	-13.625576	136.394409
3.700000	-13.761334	177.547561	-0.334736	-112.739650	-0.334736	-112.739650	-13.694752	134.113257
3.750000	-13.840547	176.744716	-0.334411	-114.280068	-0.334411	-114.280068	-13.768754	131.797095
3.800000	-13.925047	175.973073	-0.333980	-115.823410	-0.333980	-115.823410	-13.847598	129.443150
3.850000	-14.014685	175.234005	-0.333459	-117.369693	-0.333459	-117.369693	-13.931108	127.050152
3.900000	-14.109399	174.529637	-0.332863	-118.918991	-0.332863	-118.918991	-14.019187	124.615966
3.950000	-14.209110	173.862238	-0.332207	-120.471370	-0.332207	-120.471370	-14.111718	122.138351
4.000000	-14.313719	173.234216	-0.331507	-122.026896	-0.331507	-122.026896	-14.208563	119.614960
4.050000	-14.423103	172.648132	-0.330778	-123.585625	-0.330778	-123.585625	-14.309560	117.043338
4.100000	-14.537113	172.106691	-0.330037	-125.147611	-0.330037	-125.147611	-14.414517	114.420925
4.150000	-14.655567	171.612748	-0.329301	-126.712901	-0.329301	-126.712901	-14.523210	111.745068
4.200000	-14.778248	171.169301	-0.328587	-128.281538	-0.328587	-128.281538	-14.635378	109.013019
4.250000	-14.904896	170.779489	-0.327913	-129.853556	-0.327913	-129.853556	-14.750717	106.221959
4.300000	-15.035205	170.446575	-0.327297	-131.428986	-0.327297	-131.428986	-14.868875	103.369009
4.350000	-15.168813	170.173932	-0.326757	-133.007851	-0.326757	-133.007851	-14.989449	100.451257
4.400000	-15.305300	169.965757	-0.326312	-134.590205	-0.326312	-134.590205	-15.111969	97.465021
4.450000	-15.444152	169.825685	-0.325982	-136.176060	-0.325982	-136.176060	-15.235887	94.407329
4.500000	-15.584789	169.756553	-0.325784	-137.765381	-0.325784	-137.765381	-15.360596	91.276139
4.550000	-15.726554	169.761843	-0.325738	-139.358165	-0.325738	-139.358165	-15.485417	88.068827
4.600000	-15.868699	169.844922	-0.325860	-140.954401	-0.325860	-140.954401	-15.609591	84.782995
4.650000	-16.010374	170.008955	-0.326171	-142.554073	-0.326171	-142.554073	-15.732277	81.416558
4.700000	-16.150628	170.256805	-0.326688	-144.157157	-0.326688	-144.157157	-15.852546	77.967839
4.750000	-16.288398	170.590909	-0.327430	-145.763622	-0.327430	-145.763622	-15.969391	74.435680
4.800000	-16.422514	171.013143	-0.328414	-147.373431	-0.328414	-147.373431	-16.081721	70.819559
4.850000	-16.551698	171.524662	-0.329659	-148.986538	-0.329659	-148.986538	-16.188376	67.119711
4.900000	-16.674573	172.125733	-0.331182	-150.602893	-0.331182	-150.602893	-16.288138	63.337257
4.950000	-16.789677	172.815565	-0.332998	-152.222438	-0.332998	-152.222438	-16.379744	59.474320
5.000000	-16.895484	173.592127	-0.335126	-153.845108	-0.335126	-153.845108	-16.461913	55.534134
5.050000	-16.990137	174.453693	-0.337587	-155.470898	-0.337587	-155.470898	-16.533099	51.519675
5.100000	-17.072306	175.393312	-0.340391	-157.099662	-0.340391	-157.099662	-16.592290	47.438390
5.150000	-17.140472	176.404308	-0.343552	-158.731316	-0.343552	-158.731316	-16.638330	43.297296
5.200000	-17.193208	177.478370	-0.347084	-160.365772	-0.347084	-160.365772	-16.670171	39.104612
5.250000	-17.229234	178.605610	-0.350999	-162.002935	-0.350999	-162.002935	-16.686914	34.869665
5.300000	-17.247462	179.774711	-0.355310	-163.642705	-0.355310	-163.642705	-16.687841	30.602720
5.350000	-17.247048	-179.026857	-0.360028	-165.284977	-0.360028	-165.284977	-16.672445	26.314775
5.400000	-17.227427	-177.812519	-0.365163	-166.929643	-0.365163	-166.929643	-16.640447	22.017303
5.450000	-17.188342	-176.596236	-0.370725	-168.576588	-0.370725	-168.576588	-16.591811	17.721969
5.500000	-17.129858	-175.392096	-0.376723	-170.225695	-0.376723	-170.225695	-16.526743	13.440334
5.550000	-17.052356	-174.213897	-0.383163	-171.876843	-0.383163	-171.876843	-16.445683	9.183565
5.600000	-16.956515	-173.074747	-0.390053	-173.529909	-0.390053	-173.529909	-16.349288	4.962173
5.650000	-16.843089	-171.987400	-0.397401	-175.184782	-0.397401	-175.184782	-16.238240	0.786368
5.700000	-16.713280	-170.962921	-0.405213	-176.841331	-0.405213	-176.841331	-16.113565	-3.335036
5.750000	-16.568647	-170.009877	-0.413486	-178.499404	-0.413486	-178.499404	-15.976565	-7.395231
5.800000	-16.410668	-169.135757	-0.422222	179.841131	-0.422222	179.841131	-15.828451	-11.388166
5.850000	-16.240887	-168.346401	-0.431422	178.180407	-0.431422	178.180407	-15.670480	-15.309036
5.900000	-16.060875	-167.646043	-0.441085	176.518558	-0.441085	176.518558	-15.503924	-19.154243
5.950000	-15.872182	-167.037418	-0.451210	174.855718	-0.451210	174.855718	-15.330040	-22.921323
6.000000	-15.676308	-166.521908	-0.461793	173.192021	-0.461793	173.192021	-15.150048	-26.608843
6.050000	-15.474677	-166.099703	-0.472831	171.527597	-0.472831	171.527597	-14.965112	-30.216286
6.100000	-15.268618	-165.769987	-0.484318	169.862580	-0.484318	169.862580	-14.776325	-33.743927
6.150000	-15.059354	-165.531104	-0.496249	168.197098	-0.496249	168.197098	-14.584704	-37.192707
6.200000	-14.847993	-165.380736	-0.508615	166.531279	-0.508615	166.531279	-14.391180	-40.564116
6.250000	-14.635534	-165.316050	-0.521410	164.865247	-0.521410	164.865247	-14.196599	-43.860080
6.300000	-14.422762	-165.335547	-0.534630	163.199126	-0.534630	163.199126	-14.001636	-47.081331
6.350000	-14.210587	-165.433881	-0.548257	161.533038	-0.548257	161.533038	-13.807083	-50.232034
6.400000	-13.999682	-165.607417	-0.562280	159.867098	-0.562280	159.867098	-13.613537	-53.314881
6.450000	-13.790631	-165.852447	-0.576686	158.201417	-0.576686	158.201417	-13.421521	-56.332664
6.500000	-13.583929	-166.165256	-0.591462	156.536100	-0.591462	156.536100	-13.231488	-59.288226
6.550000	-13.379998	-166.542171	-0.606593	154.871250	-0.606593	154.871250	-13.043831	-62.184422
6.600000	-13.179191	-166.979599	-0.622065	153.206964	-0.622065	153.206964	-12.858885	-65.024078
6.650000	-12.981802	-167.474055	-0.637862	151.543332	-0.637862	151.543332	-12.676934	-67.809972
6.700000	-12.788068	-168.022184	-0.653967	149.880442	-0.653967	149.880442	-12.498218	-70.544810
6.750000	-12.598183	-168.620775	-0.670364	148.218373	-0.670364	148.218373	-12.322932	-73.231217
6.800000	-12.412299	-169.266766	-0.687034	146.557200	-0.687034	146.557200	-12.151240	-75.871720
6.850000	-12.230532	-169.957254	-0.703960	144.896993	-0.703960	144.896993	-11.983271	-78.468747
6.900000	-12.052976	-170.689913	-0.721125	143.237826	-0.721125	143.237826	-11.819135	-81.024202
6.950000	-11.879697	-171.462066	-0.738509	141.579757	-0.738509	141.579757	-11.658917	-83.540376
7.000000	-11.710724	-172.270825	-0.756090	139.922824	-0.756090	139.922824	-11.502663	-86.019825
7.050000	-11.546074	-173.113905	-0.773849	138.267072	-0.773849	138.267072	-11.350410	-88.464555
7.100000	-11.385747	-173.989156	-0.791765	136.612536	-0.791765	136.612536	-11.202176	-90.876476
7.150000	-11.229729	-174.894564	-0.809818	134.959248	-0.809818	134.959248	-11.057967	-93.257399
7.200000	-11.077993	-175.828239	-0.827987	133.307232	-0.827987	133.307232	-10.917778	-95.609049
7.250000	-10.930504	-176.788412	-0.846253	131.656505	-0.846253	131.656505	-10.781591	-97.933061
7.300000	-10.787219	-177.773425	-0.864593	130.007078	-0.864593	130.007078	-10.649381	-100.230993
7.350000	-10.648089	-178.781728	-0.882987	128.358956	-0.882987	128.358956	-10.521115	-102.504323
7.400000	-10.513056	-179.811867	-0.901415	126.712137	-0.901415	126.712137	-10.396755	-104.754458
7.450000	-10.382062	179.137518	-0.919856	125.066613	-0.919856	125.066613	-10.276257	-106.982741
7.500000	-10.255042	178.067701	-0.938290	123.422370	-0.938290	123.422370	-10.159570	-109.190448
7.550000	-10.131978	176.979512	-0.956693	121.779414	-0.956693	121.779414	-10.046694	-111.378408
7.600000	-10.012756	175.874480	-0.975048	120.137690	-0.975048	120.137690	-9.937523	-113.548229
7.650000	-9.897306	174.753650	-0.993333	118.497164	-0.993333	118.497164	-9.832001	-115.701027
7.700000	-9.785555	173.618003	-1.011529	116.857799	-1.011529	116.857799	-9.730066	-117.837867
7.750000	-9.677433	172.468459	-1.029617	115.219549	-1.029617	115.219549	-9.631657	-119.959777
7.800000	-9.572866	171.305882	-1.047578	113.582364	-1.047578	113.582364	-9.536711	-122.067743
7.850000	-9.471784	170.131087	-1.065393	111.946187	-1.065393	111.946187	-9.445165	-124.162716
7.900000	-9.374112	168.944838	-1.083044	110.310958	-1.083044	110.310958	-9.356955	-126.245614
7.950000	-9.279781	167.747858	-1.100513	108.676610	-1.100513	108.676610	-9.272017	-128.317327
8.000000	-9.188718	166.540826	-1.117782	107.043070	-1.117782	107.043070	-9.190286	-130.378715
8.050000	-9.100854	165.324385	-1.134834	105.410262	-1.134834	105.410262	-9.111698	-132.430615
8.100000	-9.016118	164.099142	-1.151654	103.778103	-1.151654	103.778103	-9.036189	-134.473841
8.150000	-8.934466	162.865590	-1.168221	102.146511	-1.168221	102.146511	-8.963722	-136.509109
8.200000	-8.855830	161.624289	-1.184521	100.515392	-1.184521	100.515392	-8.894232	-138.537220
8.250000	-8.780118	160.375845	-1.200541	98.884642	-1.200541	98.884642	-8.827630	-140.559017
8.300000	-8.707264	159.120747	-1.216267	97.254160	-1.216267	97.254160	-8.763855	-142.575240
8.350000	-8.637266	157.859295	-1.231675	95.623841	-1.231675	95.623841	-8.702911	-144.586502
8.400000	-8.569835	156.592512	-1.246789	93.993573	-1.246789	93.993573	-8.644503	-146.593924
8.450000	-8.505247	155.319971	-1.261540	92.363236	-1.261540	92.363236	-8.588924	-148.597646
8.500000	-8.443149	154.042778	-1.275967	90.732727	-1.275967	90.732727	-8.535810	-150.598792
8.550000	-8.383643	152.760952	-1.290030	89.101905	-1.290030	89.101905	-8.485273	-152.597862
8.600000	-8.326628	151.474949	-1.303725	87.470649	-1.303725	87.470649	-8.437214	-154.595571
8.650000	-8.271966	150.185278	-1.317058	85.838849	-1.317058	85.838849	-8.391490	-156.592631
8.700000	-8.219794	148.891934	-1.329983	84.206306	-1.329983	84.206306	-8.348251	-158.589685
8.750000	-8.169745	147.595751	-1.342554	82.573005	-1.342554	82.573005	-8.307115	-160.587333
8.800000	-8.122183	146.296428	-1.354675	80.938604	-1.354675	80.938604	-8.268465	-162.586472
8.850000	-8.076635	144.994846	-1.366430	79.303176	-1.366430	79.303176	-8.231812	-164.587430
8.900000	-8.033344	143.690935	-1.377748	77.666388	-1.377748	77.666388	-8.197411	-166.591207
8.950000	-7.992073	142.385183	-1.388665	76.028215	-1.388665	76.028215	-8.165015	-168.598175
9.000000	-7.952840	141.077802	-1.399161	74.388443	-1.399161	74.388443	-8.134646	-170.609120
9.050000	-7.915627	139.769034	-1.409225	72.746878	-1.409225	72.746878	-8.106285	-172.624776
9.100000	-7.880243	138.459236	-1.418889	71.103499	-1.418889	71.103499	-8.079736	-174.645406
9.150000	-7.846875	137.148540	-1.428092	69.457866	-1.428092	69.457866	-8.055187	-176.672419
9.200000	-7.815173	135.837321	-1.436912	67.810185	-1.436912	67.810185	-8.032279	-178.705378
9.250000	-7.785409	134.525738	-1.445265	66.159826	-1.445265	66.159826	-8.011286	179.253736
9.300000	-7.757248	133.214075	-1.453228	64.507046	-1.453228	64.507046	-7.991864	177.205571
9.350000	-7.730828	131.902567	-1.460756	62.851354	-1.460756	62.851354	-7.974146	175.148550
9.400000	-7.706008	130.591427	-1.467878	61.192733	-1.467878	61.192733	-7.957985	173.082542
9.450000	-7.682741	129.280882	-1.474600	59.530996	-1.474600	59.530996	-7.943326	171.006913
9.500000	-7.661065	127.971194	-1.480905	57.865765	-1.480905	57.865765	-7.930196	168.920445
9.550000	-7.640766	126.662468	-1.486847	56.197252	-1.486847	56.197252	-7.918374	166.823757
9.600000	-7.622042	125.355123	-1.492369	54.524623	-1.492369	54.524623	-7.908039	164.714240
9.650000	-7.604580	124.049109	-1.497556	52.848420	-1.497556	52.848420	-7.898877	162.593574
9.700000	-7.588568	122.744904	-1.502356	51.167743	-1.502356	51.167743	-7.891046	160.458961
9.750000	-7.573785	121.442474	-1.506831	49.482961	-1.506831	49.482961	-7.884323	158.311572
9.800000	-7.560283	120.142168	-1.510971	47.793530	-1.510971	47.793530	-7.878731	156.149749
9.850000	-7.547995	118.844144	-1.514799	46.099336	-1.514799	46.099336	-7.874187	153.973184
9.900000	-7.536832	117.548500	-1.518346	44.400361	-1.518346	44.400361	-7.870587	151.781887
9.950000	-7.526862	116.255676	-1.521605	42.695910	-1.521605	42.695910	-7.867954	149.573792
10.000000	-7.517872	114.965432	-1.524639	40.986593	-1.524639	40.986593	-7.866084	147.350855
