! freq	dB(S11)	phase(S11)	dB(S12)	phase(S12)	
!     	dB(S21)	phase(S21)	dB(S22)	phase(S22)	
!S-par simulation data
#  GHz  S  DB  R 50
0.000000	-86.371030	0.000000	-0.000417	0.000000	-0.000417	0.000000	-86.371030	0.000000
0.050000	-30.610132	-93.808785	-0.007887	-4.095265	-0.007887	-4.095265	-30.614385	-94.565485
0.100000	-24.632037	-97.702435	-0.026344	-8.151780	-0.026344	-8.151780	-24.636950	-99.213760
0.150000	-21.173387	-101.483393	-0.051368	-12.171874	-0.051368	-12.171874	-21.179065	-103.746577
0.200000	-18.752439	-105.180107	-0.081840	-16.165525	-0.081840	-16.165525	-18.758785	-108.192991
0.250000	-16.904082	-108.811602	-0.117821	-20.134668	-0.117821	-20.134668	-16.910938	-112.572775
0.300000	-15.420867	-112.393018	-0.159197	-24.077131	-0.159197	-24.077131	-15.428077	-116.901531
0.350000	-14.193344	-115.932366	-0.205720	-27.988741	-0.205720	-27.988741	-14.200780	-121.187394
0.400000	-13.154887	-119.434587	-0.256771	-31.866560	-0.256771	-31.866560	-13.162453	-125.435268
0.450000	-12.264277	-122.899619	-0.311825	-35.706327	-0.311825	-35.706327	-12.271910	-129.644925
0.500000	-11.491019	-126.328065	-0.370057	-39.506878	-0.370057	-39.506878	-11.498689	-133.816878
0.550000	-10.815477	-129.717053	-0.430794	-43.265045	-0.430794	-43.265045	-10.823180	-137.948145
0.600000	-10.220946	-133.066083	-0.493205	-46.981117	-0.493205	-46.981117	-10.228691	-142.038233
0.650000	-9.696401	-136.372820	-0.556540	-50.653723	-0.556540	-50.653723	-9.704193	-146.084713
0.700000	-9.232030	-139.637419	-0.620032	-54.283881	-0.620032	-54.283881	-9.239858	-150.087620
0.750000	-8.820770	-142.859893	-0.682940	-57.872082	-0.682940	-57.872082	-8.828609	-154.046710
0.800000	-8.456566	-146.041598	-0.744563	-61.419839	-0.744563	-61.419839	-8.464384	-157.963030
0.850000	-8.135037	-149.183728	-0.804176	-64.928333	-0.804176	-64.928333	-8.142797	-161.837372
0.900000	-7.850904	-152.290269	-0.861271	-68.401486	-0.861271	-68.401486	-7.858570	-165.673452
0.950000	-7.601239	-155.363223	-0.915248	-71.841316	-0.915248	-71.841316	-7.608778	-169.472838
1.000000	-7.383138	-158.405565	-0.965604	-75.250905	-0.965604	-75.250905	-7.390518	-173.238080
1.050000	-7.194166	-161.420480	-1.011902	-78.633624	-1.011902	-78.633624	-7.201353	-176.971881
1.100000	-7.032288	-164.411335	-1.053777	-81.993067	-1.053777	-81.993067	-7.039249	179.322933
1.150000	-6.895826	-167.381675	-1.090944	-85.332947	-1.090944	-85.332947	-6.902523	175.643442
1.200000	-6.783416	-170.335210	-1.123193	-88.656951	-1.123193	-88.656951	-6.789809	171.986652
1.250000	-6.693984	-173.275815	-1.150387	-91.968571	-1.150387	-91.968571	-6.700026	168.349516
1.300000	-6.627179	-176.207430	-1.172309	-95.270833	-1.172309	-95.270833	-6.632815	164.729246
1.350000	-6.581975	-179.134544	-1.188968	-98.566823	-1.188968	-98.566823	-6.587146	161.122326
1.400000	-6.558063	177.938471	-1.200214	-101.859259	-1.200214	-101.859259	-6.562698	157.525688
1.450000	-6.555371	175.007074	-1.205854	-105.151119	-1.205854	-105.151119	-6.559390	153.936311
1.500000	-6.574065	172.066543	-1.205677	-108.445934	-1.205677	-108.445934	-6.577376	150.351253
1.550000	-6.614565	169.111962	-1.199510	-111.747865	-1.199510	-111.747865	-6.617059	146.767692
1.600000	-6.677550	166.138202	-1.187262	-115.061569	-1.187262	-115.061569	-6.679099	143.182978
1.650000	-6.763987	163.139893	-1.168939	-118.391983	-1.168939	-118.391983	-6.764439	139.594689
1.700000	-6.875154	160.111397	-1.144649	-121.744120	-1.144649	-121.744120	-6.874327	136.000718
1.750000	-7.012687	157.046758	-1.114587	-125.122952	-1.114587	-125.122952	-7.010361	132.399378
1.800000	-7.178629	153.939649	-1.079027	-128.533355	-1.079027	-128.533355	-7.174535	128.789535
1.850000	-7.375500	150.783298	-1.038315	-131.980090	-1.038315	-131.980090	-7.369305	125.170803
1.900000	-7.606721	147.569672	-0.992817	-135.468297	-0.992817	-135.468297	-7.598003	121.543720
1.950000	-7.876137	144.290442	-0.943037	-139.002648	-0.943037	-139.002648	-7.864359	117.910369
2.000000	-8.188081	140.937202	-0.889593	-142.587061	-0.889593	-142.587061	-8.172552	114.274791
2.050000	-8.548261	137.499662	-0.833131	-146.225724	-0.833131	-146.225724	-8.528073	110.643536
2.100000	-8.962756	133.968434	-0.774426	-149.921083	-0.774426	-149.921083	-8.936713	107.026129
2.150000	-9.442109	130.324696	-0.714180	-153.679368	-0.714180	-153.679368	-9.408531	103.438503
2.200000	-9.997006	126.551488	-0.653353	-157.502948	-0.653353	-157.502948	-9.953540	99.903446
2.250000	-10.642370	122.623272	-0.592957	-161.395023	-0.592957	-161.395023	-10.585584	96.456273
2.300000	-11.397210	118.506836	-0.534091	-165.357248	-0.534091	-165.357248	-11.321942	93.149228
2.350000	-12.287960	114.151249	-0.477935	-169.391081	-0.477935	-169.391081	-12.186071	90.064481
2.400000	-13.352041	109.475437	-0.425742	-173.497125	-0.425742	-173.497125	-13.209967	87.335093
2.450000	-14.644931	104.339782	-0.378832	-177.674991	-0.378832	-177.674991	-14.438423	85.187720
2.500000	-16.253837	98.479778	-0.338569	178.076829	-0.338569	178.076829	-15.935446	84.035034
2.550000	-18.327026	91.299525	-0.306438	173.760392	-0.306438	173.760392	-17.791157	84.733360
2.600000	-21.133088	81.285844	-0.283744	169.380578	-0.283744	169.380578	-20.107254	89.123098
2.650000	-25.134415	62.900305	-0.272009	164.942027	-0.272009	164.942027	-22.803016	101.711498
2.700000	-29.446714	16.210867	-0.272180	160.453205	-0.272180	160.453205	-24.687129	128.120650
2.750000	-26.965847	-44.396016	-0.285106	155.922599	-0.285106	155.922599	-23.609006	158.765259
2.800000	-22.150870	-69.876074	-0.312401	151.357590	-0.312401	151.357590	-20.704174	175.850894
2.850000	-18.709027	-82.141801	-0.354660	146.769438	-0.354660	146.769438	-17.980344	-177.689816
2.900000	-16.171346	-90.405902	-0.412331	142.169614	-0.412331	142.169614	-15.745185	-176.182151
2.950000	-14.190991	-97.009936	-0.485638	137.569854	-0.485638	137.569854	-13.915007	-177.090481
3.000000	-12.583105	-102.766115	-0.574582	132.981986	-0.574582	132.981986	-12.391404	-179.302335
3.050000	-11.242092	-108.021610	-0.678904	128.417666	-0.678904	128.417666	-11.102111	177.726651
3.100000	-10.102600	-112.945187	-0.798096	123.888066	-0.798096	123.888066	-9.996539	174.290870
3.150000	-9.121563	-117.625260	-0.931481	119.403887	-0.931481	119.403887	-9.038886	170.562611
3.200000	-8.268774	-122.112678	-1.078100	114.974671	-1.078100	114.974671	-8.202872	166.652221
3.250000	-7.521940	-126.438051	-1.236789	110.608352	-1.236789	110.608352	-7.468457	162.632986
3.300000	-6.864257	-130.619537	-1.406334	106.311818	-1.406334	106.311818	-6.820203	158.554674
3.350000	-6.283025	-134.667130	-1.585508	102.091794	-1.585508	102.091794	-6.246259	154.452793
3.400000	-5.766538	-138.593671	-1.772797	97.949624	-1.772797	97.949624	-5.735522	150.353231
3.450000	-5.306962	-142.402001	-1.966997	93.890342	-1.966997	93.890342	-5.280526	146.274616
3.500000	-4.897492	-146.095497	-2.166761	89.917220	-2.166761	89.917220	-4.874733	142.231672
3.550000	-4.531280	-149.681738	-2.370769	86.028790	-2.370769	86.028790	-4.511505	138.233473
3.600000	-4.203127	-153.165086	-2.577832	82.224820	-2.577832	82.224820	-4.185788	134.286839
3.650000	-3.908569	-156.549850	-2.786832	78.504309	-2.786832	78.504309	-3.893224	130.396394
3.700000	-3.643740	-159.840361	-2.996735	74.865624	-2.996735	74.865624	-3.630028	126.565049
3.750000	-3.405279	-163.040994	-3.206592	71.306617	-3.206592	71.306617	-3.392905	122.794379
3.800000	-3.190810	-166.153356	-3.415313	67.827307	-3.415313	67.827307	-3.179521	119.087026
3.850000	-2.997121	-169.184950	-3.622311	64.422085	-3.622311	64.422085	-2.986713	115.440572
3.900000	-2.821971	-172.140177	-3.826901	61.087880	-3.826901	61.087880	-2.812269	111.854113
3.950000	-2.663390	-175.023386	-4.028475	57.821489	-4.028475	57.821489	-2.654246	108.326301
4.000000	-2.519644	-177.838852	-4.226497	54.619639	-4.226497	54.619639	-2.510931	104.855475
4.050000	-2.389204	179.409249	-4.420496	51.479033	-4.420496	51.479033	-2.380815	101.439746
4.100000	-2.271844	176.723574	-4.608995	48.403006	-4.608995	48.403006	-2.263675	98.083232
4.150000	-2.164183	174.087235	-4.793601	45.375640	-4.793601	45.375640	-2.156163	94.772103
4.200000	-2.066218	171.502589	-4.973109	42.399759	-4.973109	42.399759	-2.058276	91.509675
4.250000	-1.977015	168.966004	-5.147254	39.472299	-5.147254	39.472299	-1.969092	88.293778
4.300000	-1.895750	166.473998	-5.315810	36.590290	-5.315810	36.590290	-1.887794	85.122259
4.350000	-1.821690	164.023238	-5.478582	33.750872	-5.478582	33.750872	-1.813657	81.993009
4.400000	-1.754373	161.611747	-5.635102	30.952574	-5.635102	30.952574	-1.746225	78.905283
4.450000	-1.693177	159.236205	-5.785239	28.192513	-5.785239	28.192513	-1.684883	75.856899
4.500000	-1.637393	156.892435	-5.929185	25.466813	-5.929185	25.466813	-1.628928	72.844561
4.550000	-1.586569	154.577695	-6.066842	22.773072	-6.066842	22.773072	-1.577915	69.866424
4.600000	-1.540304	152.289369	-6.198131	20.108987	-6.198131	20.108987	-1.531447	66.920718
4.650000	-1.498240	150.024961	-6.322983	17.472352	-6.322983	17.472352	-1.489171	64.005738
4.700000	-1.460058	147.782083	-6.441344	14.861051	-6.441344	14.861051	-1.450775	61.119854
4.750000	-1.425476	145.558456	-6.553168	12.273050	-6.553168	12.273050	-1.415979	58.261496
4.800000	-1.394240	143.351895	-6.658417	9.706389	-6.658417	9.706389	-1.384535	55.429158
4.850000	-1.366126	141.160307	-6.757065	7.159178	-6.757065	7.159178	-1.356224	52.621391
4.900000	-1.340935	138.981679	-6.849090	4.629585	-6.849090	4.629585	-1.330852	49.836797
4.950000	-1.318490	136.814077	-6.934482	2.115838	-6.934482	2.115838	-1.308247	47.074027
5.000000	-1.298637	134.655636	-7.013237	-0.383776	-7.013237	-0.383776	-1.288259	44.331775
5.050000	-1.281398	132.504940	-7.084872	-2.870133	-7.084872	-2.870133	-1.270917	41.610012
5.100000	-1.266481	130.359637	-7.149914	-5.345687	-7.149914	-5.345687	-1.255934	38.906103
5.150000	-1.253787	128.218042	-7.208386	-7.811766	-7.208386	-7.811766	-1.243215	36.218842
5.200000	-1.243227	126.078513	-7.260296	-10.269511	-7.260296	-10.269511	-1.232678	33.547044
5.250000	-1.234730	123.939446	-7.305622	-12.719963	-7.305622	-12.719963	-1.224258	30.889537
5.300000	-1.228236	121.799272	-7.344304	-15.164224	-7.344304	-15.164224	-1.217898	28.245163
5.350000	-1.223696	119.656451	-7.376267	-17.603624	-7.376267	-17.603624	-1.213559	25.612765
5.400000	-1.221075	117.509466	-7.401441	-20.039731	-7.401441	-20.039731	-1.211211	22.991190
5.450000	-1.220347	115.356819	-7.419787	-22.474241	-7.419787	-22.474241	-1.210834	20.379277
5.500000	-1.221498	113.197029	-7.431292	-24.908836	-7.431292	-24.908836	-1.212423	17.775856
5.550000	-1.224526	111.028625	-7.435959	-27.345122	-7.435959	-27.345122	-1.215983	15.179740
5.600000	-1.229500	108.849752	-7.433578	-29.784788	-7.433578	-29.784788	-1.221593	12.589864
5.650000	-1.236381	106.659261	-7.424362	-32.229198	-7.424362	-32.229198	-1.229223	10.004814
5.700000	-1.245176	104.455801	-7.408403	-34.679772	-7.408403	-34.679772	-1.238886	7.423226
5.750000	-1.256041	102.237076	-7.385302	-37.138392	-7.385302	-37.138392	-1.250755	4.843933
5.800000	-1.268797	100.003398	-7.355857	-39.605543	-7.355857	-39.605543	-1.264648	2.265410
5.850000	-1.283872	97.750290	-7.318854	-42.084523	-7.318854	-42.084523	-1.281028	-0.313785
5.900000	-1.300936	95.479763	-7.275641	-44.574697	-7.275641	-44.574697	-1.299550	-2.894899
5.950000	-1.320468	93.186813	-7.224982	-47.079965	-7.224982	-47.079965	-1.320734	-5.479986
6.000000	-1.342269	90.872767	-7.167841	-49.600026	-7.167841	-49.600026	-1.344373	-8.070094
6.050000	-1.366651	88.534274	-7.103656	-52.137876	-7.103656	-52.137876	-1.370811	-10.667398
6.100000	-1.393709	86.170200	-7.032571	-54.694971	-7.032571	-54.694971	-1.400159	-13.273556
6.150000	-1.423506	83.779941	-6.954879	-57.272398	-6.954879	-57.272398	-1.432489	-15.890084
6.200000	-1.456500	81.359123	-6.869861	-59.874262	-6.869861	-59.874262	-1.468308	-18.520159
6.250000	-1.492434	78.910678	-6.778721	-62.498844	-6.778721	-62.498844	-1.507342	-21.163733
6.300000	-1.532229	76.426179	-6.679825	-65.153908	-6.679825	-65.153908	-1.550604	-23.826579
6.350000	-1.575432	73.910858	-6.574882	-67.835747	-6.574882	-67.835747	-1.597609	-26.507292
6.400000	-1.622900	71.357621	-6.462698	-70.551387	-6.462698	-70.551387	-1.649305	-29.211647
6.450000	-1.674590	68.768222	-6.344119	-73.300110	-6.344119	-73.300110	-1.705653	-31.940150
6.500000	-1.731034	66.139419	-6.218893	-76.085846	-6.218893	-76.085846	-1.767253	-34.696769
6.550000	-1.792739	63.468674	-6.086954	-78.912027	-6.086954	-78.912027	-1.834677	-37.485251
6.600000	-1.859784	60.757495	-5.949062	-81.778278	-5.949062	-81.778278	-1.908031	-40.306418
6.650000	-1.933422	57.998269	-5.804199	-84.693514	-5.804199	-84.693514	-1.988720	-43.168898
6.700000	-2.013980	55.191734	-5.653016	-87.658601	-5.653016	-87.658601	-2.077138	-46.074935
6.750000	-2.101582	52.340269	-5.496416	-90.672557	-5.496416	-90.672557	-2.173454	-49.025030
6.800000	-2.197302	49.439859	-5.334129	-93.741466	-5.334129	-93.741466	-2.278906	-52.026119
6.850000	-2.301957	46.489332	-5.166426	-96.868767	-5.166426	-96.868767	-2.394456	-55.083111
6.900000	-2.415257	43.494527	-4.994701	-100.049446	-4.994701	-100.049446	-2.519836	-58.192577
6.950000	-2.540625	40.440865	-4.817039	-103.304512	-4.817039	-103.304512	-2.658976	-61.377687
7.000000	-2.678008	37.335469	-4.635058	-106.628935	-4.635058	-106.628935	-2.811926	-64.636073
7.050000	-2.828677	34.178840	-4.449244	-110.026459	-4.449244	-110.026459	-2.980259	-67.974545
7.100000	-2.994047	30.972235	-4.260154	-113.500823	-4.260154	-113.500823	-3.165756	-71.400554
7.150000	-3.175689	27.717872	-4.068420	-117.055716	-4.068420	-117.055716	-3.370432	-74.922294
7.200000	-3.375346	24.419187	-3.874755	-120.694714	-3.874755	-120.694714	-3.596576	-78.548846
7.250000	-3.594942	21.081148	-3.679960	-124.421205	-3.679960	-124.421205	-3.846784	-82.290358
7.300000	-3.836594	17.710643	-3.484926	-128.238309	-3.484926	-128.238309	-4.124010	-86.158303
7.350000	-4.102613	14.316970	-3.290636	-132.148773	-3.290636	-132.148773	-4.431609	-90.165832
7.400000	-4.395507	10.912437	-3.098167	-136.154863	-3.098167	-136.154863	-4.773406	-94.328275
7.450000	-4.717965	7.513104	-2.908684	-140.258239	-2.908684	-140.258239	-5.153761	-98.663852
7.500000	-5.072824	4.139717	-2.723437	-144.459825	-2.723437	-144.459825	-5.577647	-103.194701
7.550000	-5.463418	0.820780	-2.543823	-148.761785	-2.543823	-148.761785	-6.051321	-107.954030
7.600000	-5.892186	-2.409818	-2.371224	-153.160955	-2.371224	-153.160955	-6.580674	-112.973485
7.650000	-6.361755	-5.508459	-2.207057	-157.655169	-2.207057	-157.655169	-7.172981	-118.300263
7.700000	-6.874223	-8.420233	-2.052743	-162.241032	-2.052743	-162.241032	-7.836379	-123.998076
7.750000	-7.430667	-11.076564	-1.909678	-166.913855	-1.909678	-166.913855	-8.579734	-130.155022
7.800000	-8.030386	-13.392842	-1.779195	-171.667636	-1.779195	-171.667636	-9.412144	-136.895575
7.850000	-8.669713	-15.266768	-1.662528	-176.495091	-1.662528	-176.495091	-10.341595	-144.398568
7.900000	-9.340280	-16.579014	-1.560772	178.612249	-1.560772	178.612249	-11.371692	-152.922870
7.950000	-10.026618	-17.199243	-1.474848	173.663889	-1.474848	173.663889	-12.494186	-162.838684
8.000000	-10.703334	-17.002593	-1.405476	168.670159	-1.405476	168.670159	-13.673090	-174.645950
8.050000	-11.332842	-15.902829	-1.353149	163.641956	-1.353149	163.641956	-14.815921	171.088661
8.100000	-11.865988	-13.904611	-1.318118	158.590452	-1.318118	158.590452	-15.741119	154.034933
8.150000	-12.246669	-11.157975	-1.300579	153.526776	-1.300579	153.526776	-16.192139	134.746469
8.200000	-12.430599	-8.010877	-1.300290	148.462076	-1.300290	148.462076	-16.007912	115.152587
8.250000	-12.404071	-4.932109	-1.316604	143.406612	-1.316604	143.406612	-15.285535	97.386822
8.300000	-12.185379	-2.371329	-1.348873	138.369642	-1.348873	138.369642	-14.266377	82.425678
8.350000	-11.821555	-0.618993	-1.395894	133.358404	-1.395894	133.358404	-13.162720	70.086050
8.400000	-11.356447	0.117809	-1.457647	128.381859	-1.457647	128.381859	-12.083613	59.974791
8.450000	-10.842439	-0.132104	-1.532647	123.444980	-1.532647	123.444980	-11.085045	51.458220
8.500000	-10.314929	-1.282417	-1.619865	118.552378	-1.619865	118.552378	-10.180719	44.120040
8.550000	-9.797453	-3.212766	-1.718266	113.707506	-1.718266	113.707506	-9.368996	37.664326
8.600000	-9.304086	-5.799812	-1.826837	108.912752	-1.826837	108.912752	-8.642384	31.884421
8.650000	-8.842445	-8.938270	-1.944707	104.170316	-1.944707	104.170316	-7.992094	26.640899
8.700000	-8.415865	-12.534841	-2.070999	99.481332	-2.070999	99.481332	-7.409301	21.831111
8.750000	-8.022833	-16.470727	-2.204276	94.839713	-2.204276	94.839713	-6.883052	17.340618
8.800000	-7.665738	-20.753788	-2.344846	90.255888	-2.344846	90.255888	-6.410870	13.179561
8.850000	-7.338763	-25.271158	-2.491148	85.718018	-2.491148	85.718018	-5.981646	9.244925
8.900000	-7.041562	-30.013448	-2.643072	81.230783	-2.643072	81.230783	-5.592422	5.532661
8.950000	-6.771296	-34.944223	-2.800085	76.792292	-2.800085	76.792292	-5.238188	2.012200
9.000000	-6.525051	-40.033368	-2.961742	72.400400	-2.961742	72.400400	-4.914561	-1.341894
9.050000	-6.300862	-45.263725	-3.127751	68.055620	-3.127751	68.055620	-4.618666	-4.542292
9.100000	-6.094612	-50.601866	-3.297738	63.751312	-3.297738	63.751312	-4.345667	-7.620890
9.150000	-5.906110	-56.049132	-3.471592	59.493220	-3.471592	59.493220	-4.095212	-10.570756
9.200000	-5.731250	-61.574784	-3.649092	55.272992	-3.649092	55.272992	-3.862784	-13.423137
9.250000	-5.570037	-67.180987	-3.830085	51.097773	-3.830085	51.097773	-3.648731	-16.168456
9.300000	-5.419145	-72.843719	-4.014505	46.959871	-4.014505	46.959871	-3.449415	-18.831902
9.350000	-5.277879	-78.558269	-4.202190	42.863513	-4.202190	42.863513	-3.264580	-21.411312
9.400000	-5.144433	-84.311230	-4.393096	38.806162	-4.393096	38.806162	-3.092400	-23.918066
9.450000	-5.017546	-90.092270	-4.587139	34.787760	-4.587139	34.787760	-2.931786	-26.358228
9.500000	-4.896339	-95.892660	-4.784155	30.810697	-4.784155	30.810697	-2.782252	-28.733457
9.550000	-4.779468	-101.701211	-4.984225	26.870587	-4.984225	26.870587	-2.642082	-31.055422
9.600000	-4.666531	-107.508957	-5.186937	22.974732	-5.186937	22.974732	-2.511804	-33.318850
9.650000	-4.556455	-113.307662	-5.392550	19.115742	-5.392550	19.115742	-2.389445	-35.537473
9.700000	-4.448907	-119.086163	-5.600546	15.301178	-5.600546	15.301178	-2.275588	-37.706288
9.750000	-4.343304	-124.839124	-5.811108	11.525944	-5.811108	11.525944	-2.168888	-39.834298
9.800000	-4.239343	-130.556452	-6.023867	7.793744	-6.023867	7.793744	-2.069369	-41.920813
9.850000	-4.136761	-136.231622	-6.238702	4.104218	-6.238702	4.104218	-1.976525	-43.968863
9.900000	-4.035384	-141.859761	-6.455558	0.456124	-6.455558	0.456124	-1.889789	-45.981866
9.950000	-3.935106	-147.429797	-6.673883	-3.146029	-6.673883	-3.146029	-1.809341	-47.958159
10.000000	-3.835896	-152.945316	-6.894079	-6.708676	-6.894079	-6.708676	-1.734104	-49.904468
