! freq	dB(S11)	phase(S11)	dB(S12)	phase(S12)	
!     	dB(S21)	phase(S21)	dB(S22)	phase(S22)	
!S-par simulation data
#  GHz  S  DB  R 50
0.000000	-91.520476	0.000000	-0.000231	0.000000	-0.000231	0.000000	-91.520476	0.000000
0.050000	-38.010252	-91.672629	-0.002380	-2.037731	-0.002380	-2.037731	-38.012717	-92.500219
0.100000	-32.003636	-93.506141	-0.007919	-4.065128	-0.007919	-4.065128	-32.008160	-95.154266
0.150000	-28.502282	-95.263668	-0.015330	-6.080774	-0.015330	-6.080774	-28.508998	-97.723572
0.200000	-26.028107	-96.972290	-0.023743	-8.088361	-0.023743	-8.088361	-26.036395	-100.238397
0.250000	-24.116393	-98.643083	-0.032916	-10.091514	-0.032916	-10.091514	-24.125433	-102.714325
0.300000	-22.560107	-100.285011	-0.042899	-12.091997	-0.042899	-12.091997	-22.569256	-105.163412
0.350000	-21.248929	-101.905940	-0.053802	-14.090381	-0.053802	-14.090381	-21.257813	-107.594951
0.400000	-20.117120	-103.512038	-0.065706	-16.086644	-0.065706	-16.086644	-20.125595	-110.015321
0.450000	-19.122641	-105.107251	-0.078690	-18.080443	-0.078690	-18.080443	-19.130706	-112.428224
0.500000	-18.236733	-106.694378	-0.092778	-20.071412	-0.092778	-20.071412	-18.244465	-114.835948
0.550000	-17.439032	-108.274985	-0.107990	-22.059145	-0.107990	-22.059145	-17.446539	-117.239616
0.600000	-16.714575	-109.849919	-0.124336	-24.043223	-0.124336	-24.043223	-16.721963	-119.639715
0.650000	-16.051882	-111.419674	-0.141792	-26.023339	-0.141792	-26.023339	-16.059244	-122.036424
0.700000	-15.442184	-112.984311	-0.160353	-27.999106	-0.160353	-27.999106	-15.449592	-124.429622
0.750000	-14.878398	-114.543829	-0.179986	-29.970262	-0.179986	-29.970262	-14.885901	-126.819151
0.800000	-14.354838	-116.098088	-0.200658	-31.936545	-0.200658	-31.936545	-14.362463	-129.204777
0.850000	-13.866930	-117.646811	-0.222346	-33.897645	-0.222346	-33.897645	-13.874683	-131.586189
0.900000	-13.410700	-119.189862	-0.244996	-35.853433	-0.244996	-35.853433	-13.418568	-133.963205
0.950000	-12.982954	-120.726947	-0.268578	-37.803662	-0.268578	-37.803662	-12.990911	-136.335544
1.000000	-12.580962	-122.257794	-0.293054	-39.748128	-0.293054	-39.748128	-12.588968	-138.702961
1.050000	-12.202308	-123.782226	-0.318372	-41.686725	-0.318372	-41.686725	-12.210314	-141.065304
1.100000	-11.844943	-125.300034	-0.344491	-43.619324	-0.344491	-43.619324	-11.852893	-143.422408
1.150000	-11.507083	-126.811027	-0.371363	-45.545815	-0.371363	-45.545815	-11.514919	-145.774141
1.200000	-11.187165	-128.315034	-0.398946	-47.466107	-0.398946	-47.466107	-11.194823	-148.120394
1.250000	-10.883806	-129.811905	-0.427194	-49.380130	-0.427194	-49.380130	-10.891223	-150.461091
1.300000	-10.595836	-131.301429	-0.456067	-51.287759	-0.456067	-51.287759	-10.602950	-152.796115
1.350000	-10.322100	-132.783574	-0.485515	-53.189024	-0.485515	-53.189024	-10.328854	-155.125504
1.400000	-10.061618	-134.258253	-0.515494	-55.083904	-0.515494	-55.083904	-10.067957	-157.449254
1.450000	-9.813503	-135.725395	-0.545961	-56.972393	-0.545961	-56.972393	-9.819380	-159.767389
1.500000	-9.576955	-137.184950	-0.576873	-58.854498	-0.576873	-58.854498	-9.582327	-162.079953
1.550000	-9.351245	-138.636889	-0.608188	-60.730239	-0.608188	-60.730239	-9.356079	-164.387010
1.600000	-9.135749	-140.081134	-0.639869	-62.599598	-0.639869	-62.599598	-9.140017	-166.688603
1.650000	-8.929832	-141.517731	-0.671874	-64.462656	-0.671874	-64.462656	-8.933515	-168.984863
1.700000	-8.732925	-142.946722	-0.704164	-66.319484	-0.704164	-66.319484	-8.736012	-171.275924
1.750000	-8.544517	-144.368143	-0.736701	-68.170149	-0.736701	-68.170149	-8.547003	-173.561915
1.800000	-8.364169	-145.781984	-0.769452	-70.014675	-0.769452	-70.014675	-8.366057	-175.842941
1.850000	-8.191356	-147.188474	-0.802380	-71.853276	-0.802380	-71.853276	-8.192654	-178.119256
1.900000	-8.025771	-148.587511	-0.835454	-73.685896	-0.835454	-73.685896	-8.026493	179.609099
1.950000	-7.867034	-149.979188	-0.868640	-75.512635	-0.868640	-75.512635	-7.867197	177.341960
2.000000	-7.714754	-151.363692	-0.901908	-77.333660	-0.901908	-77.333660	-7.714377	175.079114
2.050000	-7.568604	-152.741138	-0.935229	-79.149080	-0.935229	-79.149080	-7.567708	172.820404
2.100000	-7.428280	-154.111652	-0.968576	-80.959006	-0.968576	-80.959006	-7.426887	170.565676
2.150000	-7.293498	-155.475371	-1.001923	-82.763557	-1.001923	-82.763557	-7.291627	168.314784
2.200000	-7.163991	-156.832442	-1.035244	-84.562851	-1.035244	-84.562851	-7.161661	166.067590
2.250000	-7.039508	-158.183017	-1.068515	-86.357012	-1.068515	-86.357012	-7.036734	163.823968
2.300000	-6.919815	-159.527261	-1.101716	-88.146166	-1.101716	-88.146166	-6.916608	161.583802
2.350000	-6.804692	-160.865343	-1.134823	-89.930439	-1.134823	-89.930439	-6.801060	159.346991
2.400000	-6.693929	-162.197441	-1.167818	-91.709959	-1.167818	-91.709959	-6.689876	157.113447
2.450000	-6.587332	-163.523737	-1.200682	-93.484856	-1.200682	-93.484856	-6.582855	154.883095
2.500000	-6.484716	-164.844422	-1.233397	-95.255259	-1.233397	-95.255259	-6.479810	152.655875
2.550000	-6.385961	-166.159577	-1.265939	-97.021207	-1.265939	-97.021207	-6.380616	150.431807
2.600000	-6.290845	-167.469524	-1.298300	-98.782926	-1.298300	-98.782926	-6.285047	148.210790
2.650000	-6.199211	-168.774469	-1.330465	-100.540546	-1.330465	-100.540546	-6.192942	145.992805
2.700000	-6.110913	-170.074620	-1.362420	-102.294195	-1.362420	-102.294195	-6.104151	143.777842
2.750000	-6.025811	-171.370190	-1.394153	-104.044000	-1.394153	-104.044000	-6.018534	141.565904
2.800000	-5.943773	-172.661395	-1.425653	-105.790085	-1.425653	-105.790085	-5.935954	139.357005
2.850000	-5.864675	-173.948454	-1.456908	-107.532576	-1.456908	-107.532576	-5.856287	137.151166
2.900000	-5.788397	-175.231589	-1.487908	-109.271594	-1.487908	-109.271594	-5.779412	134.948419
2.950000	-5.714828	-176.511024	-1.518645	-111.007259	-1.518645	-111.007259	-5.705215	132.748802
3.000000	-5.643861	-177.786985	-1.549109	-112.739690	-1.549109	-112.739690	-5.633589	130.552363
3.050000	-5.575394	-179.059702	-1.579293	-114.469001	-1.579293	-114.469001	-5.564433	128.359157
3.100000	-5.509331	179.670595	-1.609189	-116.195307	-1.609189	-116.195307	-5.497650	126.169243
3.150000	-5.445601	178.403703	-1.638786	-117.918687	-1.638786	-117.918687	-5.433169	123.982726
3.200000	-5.384114	177.139379	-1.668078	-119.639255	-1.668078	-119.639255	-5.370900	121.799682
3.250000	-5.324768	175.877361	-1.697064	-121.357145	-1.697064	-121.357145	-5.310742	119.620155
3.300000	-5.267486	174.617411	-1.725738	-123.072462	-1.725738	-123.072462	-5.252617	117.444231
3.350000	-5.212192	173.359294	-1.754096	-124.785305	-1.754096	-124.785305	-5.196451	115.271999
3.400000	-5.158816	172.102773	-1.782132	-126.495771	-1.782132	-126.495771	-5.142173	113.103556
3.450000	-5.107290	170.847609	-1.809843	-128.203955	-1.809843	-128.203955	-5.089717	110.939004
3.500000	-5.057551	169.593565	-1.837226	-129.909948	-1.837226	-129.909948	-5.039019	108.778449
3.550000	-5.009537	168.340403	-1.864275	-131.613839	-1.864275	-131.613839	-4.990018	106.622004
3.600000	-4.963190	167.087881	-1.890989	-133.315714	-1.890989	-133.315714	-4.942656	104.469785
3.650000	-4.918456	165.835762	-1.917364	-135.015658	-1.917364	-135.015658	-4.896877	102.321913
3.700000	-4.875282	164.583805	-1.943396	-136.713750	-1.943396	-136.713750	-4.852631	100.178515
3.750000	-4.833618	163.331771	-1.969083	-138.410070	-1.969083	-138.410070	-4.809867	98.039721
3.800000	-4.793444	162.079406	-1.994414	-140.104657	-1.994414	-140.104657	-4.768563	95.905772
3.850000	-4.754686	160.826471	-2.019393	-141.797624	-2.019393	-141.797624	-4.728648	93.776708
3.900000	-4.717302	159.572725	-2.044020	-143.489042	-2.044020	-143.489042	-4.690078	91.652673
3.950000	-4.681251	158.317929	-2.068290	-145.178980	-2.068290	-145.178980	-4.652813	89.533813
4.000000	-4.646495	157.061839	-2.092202	-146.867503	-2.092202	-146.867503	-4.616814	87.420279
4.050000	-4.612997	155.804217	-2.115752	-148.554678	-2.115752	-148.554678	-4.582045	85.312226
4.100000	-4.580723	154.544818	-2.138938	-150.240566	-2.138938	-150.240566	-4.548472	83.209809
4.150000	-4.549639	153.283403	-2.161757	-151.925230	-2.161757	-151.925230	-4.516062	81.113191
4.200000	-4.519715	152.019729	-2.184206	-153.608727	-2.184206	-153.608727	-4.484785	79.022533
4.250000	-4.490921	150.753554	-2.206282	-155.291118	-2.206282	-155.291118	-4.454610	76.937999
4.300000	-4.463230	149.484635	-2.227981	-156.972457	-2.227981	-156.972457	-4.425512	74.859759
4.350000	-4.436614	148.212729	-2.249302	-158.652801	-2.249302	-158.652801	-4.397465	72.787979
4.400000	-4.411060	146.937556	-2.270234	-160.332194	-2.270234	-160.332194	-4.370454	70.722906
4.450000	-4.386545	145.658864	-2.290775	-162.010692	-2.290775	-162.010692	-4.344458	68.664717
4.500000	-4.363034	144.376443	-2.310925	-163.688358	-2.310925	-163.688358	-4.319445	66.613513
4.550000	-4.340508	143.090050	-2.330681	-165.365243	-2.330681	-165.365243	-4.295397	64.569467
4.600000	-4.318948	141.799438	-2.350039	-167.041401	-2.350039	-167.041401	-4.272295	62.532755
4.650000	-4.298336	140.504364	-2.368993	-168.716882	-2.368993	-168.716882	-4.250124	60.503551
4.700000	-4.278655	139.204580	-2.387539	-170.391738	-2.387539	-170.391738	-4.228868	58.482030
4.750000	-4.259889	137.899839	-2.405674	-172.066020	-2.405674	-172.066020	-4.208516	56.468365
4.800000	-4.242024	136.589895	-2.423391	-173.739781	-2.423391	-173.739781	-4.189053	54.462733
4.850000	-4.225046	135.274498	-2.440686	-175.413071	-2.440686	-175.413071	-4.170470	52.465305
4.900000	-4.208945	133.953400	-2.457553	-177.085944	-2.457553	-177.085944	-4.152758	50.476255
4.950000	-4.193707	132.626351	-2.473988	-178.758454	-2.473988	-178.758454	-4.135907	48.495754
5.000000	-4.179325	131.293100	-2.489983	179.569346	-2.489983	179.569346	-4.119910	46.523973
5.050000	-4.165805	129.953249	-2.505524	177.897406	-2.505524	177.897406	-4.104780	44.561277
5.100000	-4.153123	128.606679	-2.520615	176.225661	-2.520615	176.225661	-4.090493	42.607645
5.150000	-4.141271	127.253137	-2.535248	174.554054	-2.535248	174.554054	-4.077046	40.663243
5.200000	-4.130244	125.892368	-2.549419	172.882527	-2.549419	172.882527	-4.064435	38.728233
5.250000	-4.120036	124.524115	-2.563121	171.211019	-2.563121	171.211019	-4.052660	36.802779
5.300000	-4.110643	123.148122	-2.576348	169.539467	-2.576348	169.539467	-4.041718	34.887039
5.350000	-4.102062	121.764128	-2.589092	167.867809	-2.589092	167.867809	-4.031609	32.981171
5.400000	-4.094292	120.371875	-2.601348	166.195977	-2.601348	166.195977	-4.022336	31.085331
5.450000	-4.087330	118.971100	-2.613109	164.523905	-2.613109	164.523905	-4.013898	29.199672
5.500000	-4.081176	117.561540	-2.624368	162.851523	-2.624368	162.851523	-4.006298	27.324344
5.550000	-4.075832	116.142932	-2.635119	161.178759	-2.635119	161.178759	-3.999540	25.459496
5.600000	-4.071297	114.715010	-2.645356	159.505538	-2.645356	159.505538	-3.993627	23.605275
5.650000	-4.067584	113.277398	-2.655065	157.831778	-2.655065	157.831778	-3.988573	21.761943
5.700000	-4.064695	111.829818	-2.664240	156.157396	-2.664240	156.157396	-3.984383	19.929646
5.750000	-4.062626	110.372104	-2.672880	154.482317	-2.672880	154.482317	-3.981054	18.108406
5.800000	-4.061383	108.903983	-2.680980	152.806457	-2.680980	152.806457	-3.978592	16.298361
5.850000	-4.060969	107.425180	-2.688533	151.129728	-2.688533	151.129728	-3.977004	14.499645
5.900000	-4.061394	105.935419	-2.695534	149.452043	-2.695534	149.452043	-3.976296	12.712392
5.950000	-4.062663	104.434421	-2.701976	147.773309	-2.701976	147.773309	-3.976477	10.936732
6.000000	-4.064786	102.921908	-2.707854	146.093431	-2.707854	146.093431	-3.977555	9.172795
6.050000	-4.067771	101.397595	-2.713162	144.412312	-2.713162	144.412312	-3.979538	7.420709
6.100000	-4.071630	99.861200	-2.717897	142.729853	-2.717897	142.729853	-3.982436	5.680600
6.150000	-4.076372	98.312435	-2.722053	141.045951	-2.722053	141.045951	-3.986257	3.952593
6.200000	-4.082010	96.751013	-2.725625	139.360500	-2.725625	139.360500	-3.991010	2.236812
6.250000	-4.088557	95.176641	-2.728610	137.673394	-2.728610	137.673394	-3.996707	0.533381
6.300000	-4.096047	93.588733	-2.730992	135.984480	-2.730992	135.984480	-4.003377	-1.157305
6.350000	-4.104474	91.987274	-2.732779	134.293682	-2.732779	134.293682	-4.011010	-2.835390
6.400000	-4.113855	90.371965	-2.733970	132.600883	-2.733970	132.600883	-4.019617	-4.500754
6.450000	-4.124205	88.742505	-2.734562	130.905967	-2.734562	130.905967	-4.029208	-6.153274
6.500000	-4.135542	87.098591	-2.734553	129.208812	-2.734553	129.208812	-4.039793	-7.792827
6.550000	-4.147884	85.439916	-2.733942	127.509297	-2.733942	127.509297	-4.051385	-9.419290
6.600000	-4.161250	83.766171	-2.732730	125.807296	-2.732730	125.807296	-4.063992	-11.032539
6.650000	-4.175661	82.077045	-2.730915	124.102682	-2.730915	124.102682	-4.077626	-12.632448
6.700000	-4.191136	80.372220	-2.728499	122.395328	-2.728499	122.395328	-4.092299	-14.218888
6.750000	-4.207698	78.651378	-2.725482	120.685102	-2.725482	120.685102	-4.108019	-15.791731
6.800000	-4.225370	76.914198	-2.721868	118.971871	-2.721868	118.971871	-4.124799	-17.350844
6.850000	-4.244176	75.160352	-2.717658	117.255503	-2.717658	117.255503	-4.142648	-18.896093
6.900000	-4.264151	73.389323	-2.712849	115.535825	-2.712849	115.535825	-4.161588	-20.427185
6.950000	-4.285322	71.600766	-2.707446	113.812695	-2.707446	113.812695	-4.181630	-21.943974
7.000000	-4.307704	69.794526	-2.701461	112.086012	-2.701461	112.086012	-4.202771	-23.446465
7.050000	-4.331323	67.970261	-2.694900	110.355637	-2.694900	110.355637	-4.225021	-24.934509
7.100000	-4.356209	66.127623	-2.687768	108.621430	-2.687768	108.621430	-4.248390	-26.407949
7.150000	-4.382389	64.266259	-2.680074	106.883252	-2.680074	106.883252	-4.272885	-27.866625
7.200000	-4.409894	62.385811	-2.671825	105.140963	-2.671825	105.140963	-4.298516	-29.310369
7.250000	-4.438754	60.485914	-2.663032	103.394422	-2.663032	103.394422	-4.325289	-30.739009
7.300000	-4.469002	58.566197	-2.653705	101.643490	-2.653705	101.643490	-4.353211	-32.152364
7.350000	-4.500669	56.626285	-2.643854	99.888027	-2.643854	99.888027	-4.382289	-33.550248
7.400000	-4.533789	54.665793	-2.633492	98.127894	-2.633492	98.127894	-4.412528	-34.932466
7.450000	-4.568396	52.684328	-2.622632	96.362953	-2.622632	96.362953	-4.443933	-36.298814
7.500000	-4.604524	50.681490	-2.611287	94.593067	-2.611287	94.593067	-4.476507	-37.649081
7.550000	-4.642241	48.656389	-2.599463	92.817987	-2.599463	92.817987	-4.510275	-38.982686
7.600000	-4.681552	46.609068	-2.587187	91.037687	-2.587187	91.037687	-4.545215	-40.299749
7.650000	-4.722494	44.539099	-2.574474	89.252034	-2.574474	89.252034	-4.581327	-41.600027
7.700000	-4.765105	42.446041	-2.561345	87.460900	-2.561345	87.460900	-4.618610	-42.883270
7.750000	-4.809423	40.329442	-2.547816	85.664158	-2.547816	85.664158	-4.657059	-44.149216
7.800000	-4.855487	38.188838	-2.533909	83.861683	-2.533909	83.861683	-4.696670	-45.397592
7.850000	-4.903335	36.023748	-2.519645	82.053354	-2.519645	82.053354	-4.737435	-46.628112
7.900000	-4.953007	33.833680	-2.505045	80.239055	-2.505045	80.239055	-4.779345	-47.840482
7.950000	-5.004542	31.618125	-2.490132	78.418672	-2.490132	78.418672	-4.822389	-49.034392
8.000000	-5.057981	29.376555	-2.474929	76.592094	-2.474929	76.592094	-4.866551	-50.209524
8.050000	-5.113363	27.108426	-2.459463	74.759218	-2.459463	74.759218	-4.911814	-51.365545
8.100000	-5.170727	24.813174	-2.443758	72.919941	-2.443758	72.919941	-4.958159	-52.502113
8.150000	-5.230132	22.489904	-2.427839	71.074098	-2.427839	71.074098	-5.005569	-53.618652
8.200000	-5.291616	20.137986	-2.411735	69.221594	-2.411735	69.221594	-5.054017	-54.714783
8.250000	-5.355201	17.757086	-2.395475	67.362417	-2.395475	67.362417	-5.103462	-55.790343
8.300000	-5.420924	15.346545	-2.379090	65.496487	-2.379090	65.496487	-5.153868	-56.844944
8.350000	-5.488774	12.906572	-2.362612	63.623932	-2.362612	63.623932	-5.205178	-57.878819
8.400000	-5.558888	10.434558	-2.346065	61.744263	-2.346065	61.744263	-5.257385	-58.890234
8.450000	-5.631246	7.930739	-2.329484	59.857643	-2.329484	59.857643	-5.310417	-59.879471
8.500000	-5.705880	5.394332	-2.312902	57.964019	-2.312902	57.964019	-5.364218	-60.846112
8.550000	-5.782818	2.824516	-2.296352	56.063346	-2.296352	56.063346	-5.418727	-61.789735
8.600000	-5.862089	0.220433	-2.279865	54.155585	-2.279865	54.155585	-5.473874	-62.709916
8.650000	-5.943715	-2.418814	-2.263477	52.240704	-2.263477	52.240704	-5.529586	-63.606234
8.700000	-6.027716	-5.094167	-2.247222	50.318681	-2.247222	50.318681	-5.585780	-64.478271
8.750000	-6.114106	-7.806608	-2.231133	48.389500	-2.231133	48.389500	-5.642366	-65.325615
8.800000	-6.202918	-10.557736	-2.215249	46.453047	-2.215249	46.453047	-5.699245	-66.147496
8.850000	-6.294132	-13.348095	-2.199603	44.509427	-2.199603	44.509427	-5.756311	-66.943888
8.900000	-6.387744	-16.178815	-2.184230	42.558647	-2.184230	42.558647	-5.813450	-67.714426
8.950000	-6.483744	-19.051075	-2.169167	40.600722	-2.169167	40.600722	-5.870540	-68.458771
9.000000	-6.582112	-21.966109	-2.154448	38.635676	-2.154448	38.635676	-5.927450	-69.176612
9.050000	-6.682816	-24.925201	-2.140109	36.663539	-2.140109	36.663539	-5.984041	-69.867677
9.100000	-6.785816	-27.929688	-2.126186	34.684348	-2.126186	34.684348	-6.040163	-70.531734
9.150000	-6.891056	-30.980958	-2.112715	32.698151	-2.112715	32.698151	-6.095661	-71.168603
9.200000	-6.998477	-34.081171	-2.099738	30.704899	-2.099738	30.704899	-6.150350	-71.777761
9.250000	-7.108000	-37.233377	-2.087308	28.704458	-2.087308	28.704458	-6.204006	-72.358356
9.300000	-7.219455	-40.433156	-2.075397	26.697687	-2.075397	26.697687	-6.256617	-72.913574
9.350000	-7.332767	-43.686243	-2.064084	24.684096	-2.064084	24.684096	-6.307879	-73.441259
9.400000	-7.447784	-46.994794	-2.053408	22.663702	-2.053408	22.663702	-6.357578	-73.941332
9.450000	-7.564323	-50.359412	-2.043395	20.636721	-2.043395	20.636721	-6.405543	-74.414596
9.500000	-7.682181	-53.781720	-2.034076	18.603246	-2.034076	18.603246	-6.451571	-74.861431
9.550000	-7.801125	-57.263334	-2.025485	16.563372	-2.025485	16.563372	-6.495456	-75.282321
9.600000	-7.920881	-60.806142	-2.017658	14.517170	-2.017658	14.517170	-6.536975	-75.677752
9.650000	-8.041135	-64.412015	-2.010633	12.464720	-2.010633	12.464720	-6.575906	-76.048341
9.700000	-8.161551	-68.081822	-2.004433	10.406191	-2.004433	10.406191	-6.612067	-76.395183
9.750000	-8.281747	-71.816908	-1.999089	8.341697	-1.999089	8.341697	-6.645258	-76.719255
9.800000	-8.401298	-75.618475	-1.994633	6.271355	-1.994633	6.271355	-6.675286	-77.021659
9.850000	-8.519733	-79.487537	-1.991094	4.195284	-1.991094	4.195284	-6.701965	-77.303623
9.900000	-8.636540	-83.424874	-1.988502	2.113606	-1.988502	2.113606	-6.725121	-77.566495
9.950000	-8.751159	-87.430982	-1.986887	0.026445	-1.986887	0.026445	-6.744594	-77.811743
10.000000	-8.862991	-91.506018	-1.986276	-2.066075	-1.986276	-2.066075	-6.760239	-78.040943
