! freq	dB(S11)	phase(S11)	dB(S12)	phase(S12)	
!     	dB(S21)	phase(S21)	dB(S22)	phase(S22)	
!S-par simulation data
#  GHz  S  DB  R 50
0.000000	-90.705818	0.000000	-0.000253	0.000000	-0.000253	0.000000	-90.705818	0.000000
0.050000	-45.008744	-90.915115	-0.002140	-1.526619	-0.002140	-1.526619	-45.011193	-91.634799
0.100000	-39.001901	-92.283579	-0.005201	-3.055750	-0.005201	-3.055750	-39.007464	-93.730167
0.150000	-35.500113	-93.559322	-0.008495	-4.578267	-0.008495	-4.578267	-35.508727	-95.739694
0.200000	-33.025397	-94.816273	-0.011810	-6.094695	-0.011810	-6.094695	-33.035878	-97.731712
0.250000	-31.112759	-96.066470	-0.015066	-7.607289	-0.015066	-7.607289	-31.123783	-99.712988
0.300000	-29.554425	-97.309846	-0.018299	-9.117699	-0.018299	-9.117699	-29.565151	-101.682062
0.350000	-28.239844	-98.543381	-0.021585	-10.626807	-0.021585	-10.626807	-28.249941	-103.637568
0.400000	-27.103205	-99.764896	-0.024994	-12.135066	-0.024994	-12.135066	-27.112662	-105.580153
0.450000	-26.102687	-100.973012	-0.028585	-13.642627	-0.028585	-13.642627	-26.111598	-107.510855
0.500000	-25.209716	-102.168485	-0.032391	-15.149558	-0.032391	-15.149558	-25.218164	-109.431902
0.550000	-24.404316	-103.352011	-0.036446	-16.655829	-0.036446	-16.655829	-24.412339	-111.344907
0.600000	-23.671520	-104.525377	-0.040759	-18.161439	-0.040759	-18.161439	-23.679115	-113.251868
0.650000	-23.000324	-105.689556	-0.045354	-19.666342	-0.045354	-19.666342	-23.007455	-115.154097
0.700000	-22.381644	-106.846372	-0.050212	-21.170595	-0.050212	-21.170595	-22.388270	-117.053174
0.750000	-21.808486	-107.996759	-0.055326	-22.674231	-0.055326	-22.674231	-21.814565	-118.950068
0.800000	-21.275551	-109.141071	-0.060695	-24.177239	-0.060695	-24.177239	-21.281038	-120.845545
0.850000	-20.778156	-110.279984	-0.066288	-25.679635	-0.066288	-25.679635	-20.783012	-122.740390
0.900000	-20.312257	-111.414088	-0.072061	-27.181382	-0.072061	-27.181382	-20.316454	-124.635203
0.950000	-19.874555	-112.543673	-0.077984	-28.682369	-0.077984	-28.682369	-19.878069	-126.530423
1.000000	-19.462651	-113.668552	-0.084044	-30.182345	-0.084044	-30.182345	-19.465458	-128.426505
1.050000	-19.074013	-114.788953	-0.090226	-31.681154	-0.090226	-31.681154	-19.076094	-130.323770
1.100000	-18.706616	-115.904865	-0.096531	-33.178656	-0.096531	-33.178656	-18.707951	-132.222513
1.150000	-18.358698	-117.016231	-0.102962	-34.674777	-0.102962	-34.674777	-18.359268	-134.122994
1.200000	-18.028719	-118.122960	-0.109524	-36.169498	-0.109524	-36.169498	-18.028505	-136.025449
1.250000	-17.715324	-119.224940	-0.116218	-37.662838	-0.116218	-37.662838	-17.714304	-137.930095
1.300000	-17.417360	-120.321984	-0.123040	-39.154824	-0.123040	-39.154824	-17.415510	-139.837165
1.350000	-17.133710	-121.414001	-0.129984	-40.645517	-0.129984	-40.645517	-17.131006	-141.746833
1.400000	-16.863419	-122.500840	-0.137040	-42.134968	-0.137040	-42.134968	-16.859833	-143.659290
1.450000	-16.605629	-123.582346	-0.144201	-43.623223	-0.144201	-43.623223	-16.601131	-145.574727
1.500000	-16.359567	-124.658364	-0.151454	-45.110329	-0.151454	-45.110329	-16.354126	-147.493334
1.550000	-16.124532	-125.728734	-0.158790	-46.596332	-0.158790	-46.596332	-16.118114	-149.415302
1.600000	-15.899921	-126.793253	-0.166198	-48.081266	-0.166198	-48.081266	-15.892491	-151.340856
1.650000	-15.685131	-127.851795	-0.173669	-49.565184	-0.173669	-49.565184	-15.676651	-153.270177
1.700000	-15.479618	-128.904224	-0.181192	-51.048133	-0.181192	-51.048133	-15.470050	-155.203455
1.750000	-15.282894	-129.950392	-0.188757	-52.530156	-0.188757	-52.530156	-15.272198	-157.140896
1.800000	-15.094510	-130.990153	-0.196356	-54.011302	-0.196356	-54.011302	-15.082643	-159.082708
1.850000	-14.914050	-132.023366	-0.203981	-55.491618	-0.203981	-55.491618	-14.900972	-161.029106
1.900000	-14.741152	-133.049856	-0.211622	-56.971147	-0.211622	-56.971147	-14.726817	-162.980335
1.950000	-14.575457	-134.069487	-0.219272	-58.449942	-0.219272	-58.449942	-14.559821	-164.936620
2.000000	-14.416663	-135.082070	-0.226923	-59.928047	-0.226923	-59.928047	-14.399679	-166.898236
2.050000	-14.264378	-136.087631	-0.234570	-61.405532	-0.234570	-61.405532	-14.246000	-168.865298
2.100000	-14.118342	-137.085991	-0.242204	-62.882443	-0.242204	-62.882443	-14.098522	-170.838082
2.150000	-13.978283	-138.077033	-0.249821	-64.358835	-0.249821	-64.358835	-13.956974	-172.816825
2.200000	-13.843947	-139.060641	-0.257414	-65.834764	-0.257414	-65.834764	-13.821098	-174.801765
2.250000	-13.715093	-140.036704	-0.264978	-67.310286	-0.264978	-67.310286	-13.690654	-176.793144
2.300000	-13.591494	-141.005115	-0.272508	-68.785458	-0.272508	-68.785458	-13.565412	-178.791204
2.350000	-13.472936	-141.965769	-0.280001	-70.260338	-0.280001	-70.260338	-13.445157	179.203812
2.400000	-13.359217	-142.918564	-0.287450	-71.734984	-0.287450	-71.734984	-13.329685	177.191659
2.450000	-13.250142	-143.863402	-0.294854	-73.209456	-0.294854	-73.209456	-13.218800	175.172091
2.500000	-13.145530	-144.800186	-0.302209	-74.683814	-0.302209	-74.683814	-13.112316	173.144867
2.550000	-13.045270	-145.728643	-0.309509	-76.158116	-0.309509	-76.158116	-13.010121	171.109564
2.600000	-12.949128	-146.648857	-0.316755	-77.632427	-0.316755	-77.632427	-12.911978	169.066110
2.650000	-12.856943	-147.560739	-0.323943	-79.106806	-0.323943	-79.106806	-12.817724	167.014266
2.700000	-12.768564	-148.464203	-0.331073	-80.581314	-0.331073	-80.581314	-12.727203	164.953798
2.750000	-12.683843	-149.359165	-0.338141	-82.056011	-0.338141	-82.056011	-12.640265	162.884474
2.800000	-12.602639	-150.245543	-0.345148	-83.530959	-0.345148	-83.530959	-12.556764	160.806069
2.850000	-12.524815	-151.123256	-0.352093	-85.006216	-0.352093	-85.006216	-12.476560	158.718363
2.900000	-12.450240	-151.992228	-0.358975	-86.481843	-0.358975	-86.481843	-12.399516	156.621142
2.950000	-12.378786	-152.852385	-0.365795	-87.957900	-0.365795	-87.957900	-12.325500	154.514201
3.000000	-12.310328	-153.703653	-0.372552	-89.434446	-0.372552	-89.434446	-12.254383	152.397341
3.050000	-12.244747	-154.545964	-0.379247	-90.911538	-0.379247	-90.911538	-12.186039	150.270373
3.100000	-12.181924	-155.379253	-0.385882	-92.389236	-0.385882	-92.389236	-12.120346	148.133119
3.150000	-12.121769	-156.203359	-0.392457	-93.867603	-0.392457	-93.867603	-12.057205	145.985295
3.200000	-12.064165	-157.018221	-0.398974	-95.346699	-0.398974	-95.346699	-11.996496	143.826742
3.250000	-12.008978	-157.823887	-0.405436	-96.826570	-0.405436	-96.826570	-11.938080	141.657431
3.300000	-11.956101	-158.620308	-0.411845	-98.307270	-0.411845	-98.307270	-11.881843	139.477235
3.350000	-11.905425	-159.407445	-0.418204	-99.788854	-0.418204	-99.788854	-11.827674	137.286041
3.400000	-11.856846	-160.185261	-0.424515	-101.271372	-0.424515	-101.271372	-11.775463	135.083755
3.450000	-11.810259	-160.953732	-0.430784	-102.754873	-0.430784	-102.754873	-11.725100	132.870296
3.500000	-11.765561	-161.712837	-0.437012	-104.239408	-0.437012	-104.239408	-11.676478	130.645605
3.550000	-11.722650	-162.462570	-0.443205	-105.725022	-0.443205	-105.725022	-11.629490	128.409640
3.600000	-11.681423	-163.202931	-0.449365	-107.211761	-0.449365	-107.211761	-11.584033	126.162381
3.650000	-11.641780	-163.933933	-0.455499	-108.699669	-0.455499	-108.699669	-11.540002	123.903829
3.700000	-11.603621	-164.655603	-0.461610	-110.188786	-0.461610	-110.188786	-11.497294	121.634006
3.750000	-11.566845	-165.367981	-0.467703	-111.679152	-0.467703	-111.679152	-11.455808	119.352958
3.800000	-11.531375	-166.070921	-0.473785	-113.170833	-0.473785	-113.170833	-11.415463	117.060516
3.850000	-11.497087	-166.764699	-0.479859	-114.663837	-0.479859	-114.663837	-11.376137	114.757021
3.900000	-11.463881	-167.449404	-0.485933	-116.158197	-0.485933	-116.158197	-11.337732	112.442595
3.950000	-11.431659	-168.125144	-0.492012	-117.653942	-0.492012	-117.653942	-11.300154	110.117389
4.000000	-11.400325	-168.792048	-0.498101	-119.151100	-0.498101	-119.151100	-11.263307	107.781578
4.050000	-11.369781	-169.450266	-0.504208	-120.649697	-0.504208	-120.649697	-11.227098	105.435367
4.100000	-11.339931	-170.099967	-0.510337	-122.149755	-0.510337	-122.149755	-11.191437	103.078988
4.150000	-11.310681	-170.741347	-0.516497	-123.651293	-0.516497	-123.651293	-11.156235	100.712699
4.200000	-11.281938	-171.374624	-0.522692	-125.154328	-0.522692	-125.154328	-11.121405	98.336791
4.250000	-11.253608	-172.000041	-0.528930	-126.658876	-0.528930	-126.658876	-11.086862	95.951579
4.300000	-11.225602	-172.617863	-0.535216	-128.164947	-0.535216	-128.164947	-11.052526	93.557409
4.350000	-11.197831	-173.228386	-0.541558	-129.672551	-0.541558	-129.672551	-11.018317	91.154652
4.400000	-11.170208	-173.831855	-0.547962	-131.181708	-0.547962	-131.181708	-10.984157	88.743624
4.450000	-11.142646	-174.428627	-0.554435	-132.692423	-0.554435	-132.692423	-10.949972	86.324768
4.500000	-11.115063	-175.019151	-0.560983	-134.204678	-0.560983	-134.204678	-10.915692	83.898625
4.550000	-11.087381	-175.603822	-0.567612	-135.718470	-0.567612	-135.718470	-10.881253	81.465676
4.600000	-11.059525	-176.183061	-0.574329	-137.233793	-0.574329	-137.233793	-10.846594	79.026422
4.650000	-11.031424	-176.757313	-0.581138	-138.750639	-0.581138	-138.750639	-10.811656	76.581388
4.700000	-11.003011	-177.327045	-0.588046	-140.268994	-0.588046	-140.268994	-10.776387	74.131117
4.750000	-10.974222	-177.892744	-0.595058	-141.788846	-0.595058	-141.788846	-10.740738	71.676175
4.800000	-10.944998	-178.454917	-0.602180	-143.310177	-0.602180	-143.310177	-10.704666	69.217142
4.850000	-10.915287	-179.014089	-0.609416	-144.832967	-0.609416	-144.832967	-10.668130	66.754614
4.900000	-10.885037	-179.570800	-0.616773	-146.357194	-0.616773	-146.357194	-10.631097	64.289199
4.950000	-10.854206	179.874396	-0.624253	-147.882834	-0.624253	-147.882834	-10.593537	61.821518
5.000000	-10.822754	179.320934	-0.631861	-149.409859	-0.631861	-149.409859	-10.555427	59.352198
5.050000	-10.790630	178.768243	-0.639604	-150.938269	-0.639604	-150.938269	-10.516730	56.881867
5.100000	-10.757823	178.215715	-0.647483	-152.468002	-0.647483	-152.468002	-10.477449	54.411199
5.150000	-10.724310	177.662763	-0.655500	-153.999026	-0.655500	-153.999026	-10.437576	51.940832
5.200000	-10.690075	177.108805	-0.663658	-155.531305	-0.663658	-155.531305	-10.397108	49.471404
5.250000	-10.655106	176.553256	-0.671959	-157.064803	-0.671959	-157.064803	-10.356046	47.003548
5.300000	-10.619398	175.995537	-0.680405	-158.599481	-0.680405	-158.599481	-10.314397	44.537892
5.350000	-10.582949	175.435075	-0.688998	-160.135300	-0.688998	-160.135300	-10.272174	42.075053
5.400000	-10.545765	174.871308	-0.697737	-161.672220	-0.697737	-161.672220	-10.229392	39.615640
5.450000	-10.507855	174.303682	-0.706624	-163.210200	-0.706624	-163.210200	-10.186074	37.160244
5.500000	-10.469234	173.731660	-0.715657	-164.749196	-0.715657	-164.749196	-10.142244	34.709446
5.550000	-10.429919	173.154718	-0.724837	-166.289167	-0.724837	-166.289167	-10.097932	32.263805
5.600000	-10.389935	172.572349	-0.734162	-167.830070	-0.734162	-167.830070	-10.053171	29.823864
5.650000	-10.349301	171.983998	-0.743632	-169.371872	-0.743632	-169.371872	-10.007994	27.390216
5.700000	-10.308047	171.389181	-0.753244	-170.914526	-0.753244	-170.914526	-9.962440	24.963375
5.750000	-10.266218	170.787518	-0.762994	-172.457983	-0.762994	-172.457983	-9.916562	22.543747
5.800000	-10.223851	170.178589	-0.772878	-174.002198	-0.772878	-174.002198	-9.870406	20.131777
5.850000	-10.180988	169.561995	-0.782894	-175.547132	-0.782894	-175.547132	-9.824023	17.727887
5.900000	-10.137672	168.937362	-0.793036	-177.092744	-0.793036	-177.092744	-9.777463	15.332470
5.950000	-10.093947	168.304340	-0.803300	-178.638994	-0.803300	-178.638994	-9.730780	12.945891
6.000000	-10.049862	167.662604	-0.813680	179.814155	-0.813680	179.814155	-9.684031	10.568486
6.050000	-10.005466	167.011852	-0.824170	178.266740	-0.824170	178.266740	-9.637271	8.200564
6.100000	-9.960808	166.351809	-0.834765	176.718796	-0.834765	176.718796	-9.590559	5.842402
6.150000	-9.915941	165.682224	-0.845457	175.170355	-0.845457	175.170355	-9.543954	3.494249
6.200000	-9.870916	165.002868	-0.856240	173.621448	-0.856240	173.621448	-9.497516	1.156325
6.250000	-9.825788	164.313538	-0.867106	172.072104	-0.867106	172.072104	-9.451304	-1.171182
6.300000	-9.780604	163.613829	-0.878047	170.522341	-0.878047	170.522341	-9.405381	-3.487876
6.350000	-9.735425	162.903800	-0.889055	168.972192	-0.889055	168.972192	-9.359808	-5.793855
6.400000	-9.690306	162.183317	-0.900121	167.421678	-0.900121	167.421678	-9.314644	-8.089018
6.450000	-9.645300	161.452268	-0.911234	165.870817	-0.911234	165.870817	-9.269950	-10.373292
6.500000	-9.600461	160.710558	-0.922387	164.319625	-0.922387	164.319625	-9.225783	-12.646631
6.550000	-9.555841	159.958116	-0.933569	162.768113	-0.933569	162.768113	-9.182203	-14.909017
6.600000	-9.511494	159.194887	-0.944771	161.216291	-0.944771	161.216291	-9.139266	-17.160458
6.650000	-9.467470	158.420836	-0.955982	159.664166	-0.955982	159.664166	-9.097028	-19.400987
6.700000	-9.423821	157.635945	-0.967193	158.111739	-0.967193	158.111739	-9.055546	-21.630663
6.750000	-9.380599	156.840216	-0.978392	156.559010	-0.978392	156.559010	-9.014871	-23.849570
6.800000	-9.337851	156.033663	-0.989569	155.005976	-0.989569	155.005976	-8.975058	-26.057814
6.850000	-9.295627	155.216319	-1.000713	153.452629	-1.000713	153.452629	-8.936157	-28.255526
6.900000	-9.253979	154.388115	-1.011813	151.898954	-1.011813	151.898954	-8.898228	-30.442748
6.950000	-9.212955	153.549118	-1.022856	150.344936	-1.022856	150.344936	-8.861320	-32.619662
7.000000	-9.172597	152.699522	-1.033834	148.790562	-1.033834	148.790562	-8.825473	-34.786577
7.050000	-9.132950	151.839419	-1.044733	147.235808	-1.044733	147.235808	-8.790731	-36.943712
7.100000	-9.094057	150.968916	-1.055545	145.680650	-1.055545	145.680650	-8.757138	-39.091305
7.150000	-9.055960	150.088132	-1.066256	144.125058	-1.066256	144.125058	-8.724736	-41.229615
7.200000	-9.018700	149.197199	-1.076857	142.569000	-1.076857	142.569000	-8.693567	-43.358918
7.250000	-8.982317	148.296263	-1.087335	141.012439	-1.087335	141.012439	-8.663670	-45.479511
7.300000	-8.946850	147.385482	-1.097681	139.455336	-1.097681	139.455336	-8.635084	-47.591709
7.350000	-8.912335	146.465026	-1.107883	137.897647	-1.107883	137.897647	-8.607843	-49.695844
7.400000	-8.878810	145.535080	-1.117931	136.339324	-1.117931	136.339324	-8.581984	-51.792266
7.450000	-8.846308	144.595837	-1.127813	134.780317	-1.127813	134.780317	-8.557541	-53.881344
7.500000	-8.814864	143.647506	-1.137520	133.220571	-1.137520	133.220571	-8.534547	-55.963464
7.550000	-8.784530	142.690119	-1.147036	131.660009	-1.147036	131.660009	-8.513063	-58.038896
7.600000	-8.755319	141.724107	-1.156356	130.098585	-1.156356	130.098585	-8.493091	-60.108214
7.650000	-8.727257	140.749714	-1.165469	128.536233	-1.165469	128.536233	-8.474659	-62.171856
7.700000	-8.700373	139.767197	-1.174366	126.972884	-1.174366	126.972884	-8.457794	-64.230279
7.750000	-8.674693	138.776825	-1.183038	125.408465	-1.183038	125.408465	-8.442524	-66.283957
7.800000	-8.650241	137.778879	-1.191474	123.842899	-1.191474	123.842899	-8.428874	-68.333382
7.850000	-8.627039	136.773651	-1.199667	122.276105	-1.199667	122.276105	-8.416868	-70.379063
7.900000	-8.605108	135.761446	-1.207608	120.708000	-1.207608	120.708000	-8.406531	-72.421528
7.950000	-8.584467	134.742580	-1.215288	119.138496	-1.215288	119.138496	-8.397884	-74.461325
8.000000	-8.565134	133.717382	-1.222700	117.567501	-1.222700	117.567501	-8.390949	-76.499018
8.050000	-8.547123	132.686191	-1.229835	115.994921	-1.229835	115.994921	-8.385747	-78.535192
8.100000	-8.530447	131.649359	-1.236688	114.420656	-1.236688	114.420656	-8.382299	-80.570453
8.150000	-8.515133	130.607196	-1.243247	112.844583	-1.243247	112.844583	-8.380642	-82.605430
8.200000	-8.501189	129.560088	-1.249506	111.266592	-1.249506	111.266592	-8.380795	-84.640792
8.250000	-8.488608	128.508480	-1.255462	109.686592	-1.255462	109.686592	-8.382756	-86.677213
8.300000	-8.477396	127.452769	-1.261110	108.104468	-1.261110	108.104468	-8.386542	-88.715386
8.350000	-8.467592	126.393268	-1.266436	106.520033	-1.266436	106.520033	-8.392221	-90.756122
8.400000	-8.459059	125.330724	-1.271467	104.933411	-1.271467	104.933411	-8.399617	-92.799813
8.450000	-8.452004	124.265100	-1.276151	103.344093	-1.276151	103.344093	-8.409033	-94.847810
8.500000	-8.446241	123.197198	-1.280527	101.752294	-1.280527	101.752294	-8.420229	-96.900325
8.550000	-8.441866	122.127298	-1.284568	100.157671	-1.284568	100.157671	-8.433360	-98.958574
8.600000	-8.438843	121.055893	-1.288277	98.560141	-1.288277	98.560141	-8.448399	-101.023293
8.650000	-8.437111	119.983498	-1.291667	96.959677	-1.291667	96.959677	-8.465282	-103.095088
8.700000	-8.436781	118.910522	-1.294704	95.355830	-1.294704	95.355830	-8.484195	-105.175632
8.750000	-8.437635	117.837487	-1.297440	93.748956	-1.297440	93.748956	-8.504854	-107.264499
8.800000	-8.439928	116.764952	-1.299805	92.138169	-1.299805	92.138169	-8.527657	-109.364754
8.850000	-8.443367	115.693290	-1.301871	90.524065	-1.301871	90.524065	-8.552209	-111.475176
8.900000	-8.448122	114.623194	-1.303590	88.905905	-1.303590	88.905905	-8.578792	-113.598599
8.950000	-8.454050	113.555024	-1.304997	87.283898	-1.304997	87.283898	-8.607223	-115.734884
9.000000	-8.461166	112.489397	-1.306085	85.657714	-1.306085	85.657714	-8.637563	-117.885682
9.050000	-8.469465	111.426911	-1.306852	84.027097	-1.306852	84.027097	-8.669832	-120.052450
9.100000	-8.478827	110.367850	-1.307329	82.392210	-1.307329	82.392210	-8.703879	-122.235126
9.150000	-8.489365	109.313310	-1.307483	80.752242	-1.307483	80.752242	-8.739912	-124.437333
9.200000	-8.500861	108.263078	-1.307375	79.107841	-1.307375	79.107841	-8.777611	-126.657101
9.250000	-8.513472	107.218715	-1.306959	77.457847	-1.306959	77.457847	-8.817258	-128.899651
9.300000	-8.526989	106.179842	-1.306296	75.802962	-1.306296	75.802962	-8.858534	-131.162673
9.350000	-8.541482	105.147764	-1.305369	74.142367	-1.305369	74.142367	-8.901569	-133.450204
9.400000	-8.556858	104.122693	-1.304205	72.476181	-1.304205	72.476181	-8.946219	-135.762308
9.450000	-8.573076	103.105240	-1.302822	70.804201	-1.302822	70.804201	-8.992419	-138.100479
9.500000	-8.590142	102.096497	-1.301224	69.125870	-1.301224	69.125870	-9.040164	-140.467844
9.550000	-8.607925	101.096085	-1.299455	67.441699	-1.299455	67.441699	-9.089231	-142.862623
9.600000	-8.626507	100.106284	-1.297505	65.750356	-1.297505	65.750356	-9.139698	-145.291756
9.650000	-8.645718	99.125838	-1.295427	64.052902	-1.295427	64.052902	-9.191265	-147.750728
9.700000	-8.665625	98.157264	-1.293225	62.347932	-1.293225	62.347932	-9.243939	-150.247069
9.750000	-8.686099	97.199430	-1.290941	60.636358	-1.290941	60.636358	-9.297469	-152.776805
9.800000	-8.707168	96.254456	-1.288596	58.917092	-1.288596	58.917092	-9.351750	-155.346053
9.850000	-8.728773	95.322540	-1.286224	57.190229	-1.286224	57.190229	-9.406568	-157.954936
9.900000	-8.750883	94.404406	-1.283860	55.455552	-1.283860	55.455552	-9.461714	-160.605146
9.950000	-8.773468	93.500790	-1.281541	53.712848	-1.281541	53.712848	-9.516951	-163.298351
10.000000	-8.796504	92.612442	-1.279304	51.961904	-1.279304	51.961904	-9.572020	-166.036180
