! freq	dB(S11)	phase(S11)	dB(S12)	phase(S12)	
!     	dB(S21)	phase(S21)	dB(S22)	phase(S22)	
!S-par simulation data
#  GHz  S  DB  R 50
0.000000	-97.315724	0.000000	-0.000118	0.000000	-0.000118	0.000000	-97.315724	0.000000
0.050000	-40.332343	-91.492927	-0.001446	-1.373126	-0.001446	-1.373126	-40.332344	-91.492948
0.100000	-34.328623	-93.070938	-0.004911	-2.740174	-0.004911	-2.740174	-34.328622	-93.070987
0.150000	-30.829387	-94.568242	-0.009584	-4.100050	-0.009584	-4.100050	-30.829384	-94.568328
0.200000	-28.354516	-96.011038	-0.014867	-5.454917	-0.014867	-5.454917	-28.354513	-96.011163
0.250000	-26.439851	-97.415096	-0.020582	-6.806796	-0.020582	-6.806796	-26.439849	-97.415258
0.300000	-24.878694	-98.794661	-0.026739	-8.156950	-0.026739	-8.156950	-24.878692	-98.794857
0.350000	-23.561015	-100.160249	-0.033386	-9.505926	-0.033386	-9.505926	-23.561014	-100.160476
0.400000	-22.421684	-101.517591	-0.040591	-10.853793	-0.040591	-10.853793	-22.421684	-101.517846
0.450000	-21.419031	-102.869891	-0.048432	-12.200381	-0.048432	-12.200381	-21.419030	-102.870173
0.500000	-20.524295	-104.219163	-0.056915	-13.545566	-0.056915	-13.545566	-20.524294	-104.219474
0.550000	-19.717177	-105.566196	-0.066059	-14.889146	-0.066059	-14.889146	-19.717176	-105.566534
0.600000	-18.982897	-106.911203	-0.075909	-16.230824	-0.075909	-16.230824	-18.982895	-106.911570
0.650000	-18.309907	-108.254284	-0.086442	-17.570464	-0.086442	-17.570464	-18.309905	-108.254681
0.700000	-17.689306	-109.595350	-0.097651	-18.907903	-0.097651	-18.907903	-17.689303	-109.595777
0.750000	-17.114194	-110.934160	-0.109548	-20.242894	-0.109548	-20.242894	-17.114191	-110.934619
0.800000	-16.578880	-112.270519	-0.122120	-21.575271	-0.122120	-21.575271	-16.578876	-112.271010
0.850000	-16.078659	-113.604259	-0.135345	-22.904913	-0.135345	-22.904913	-16.078654	-113.604783
0.900000	-15.609660	-114.935206	-0.149207	-24.231682	-0.149207	-24.231682	-15.609655	-114.935763
0.950000	-15.168661	-116.263182	-0.163692	-25.555435	-0.163692	-25.555435	-15.168655	-116.263773
1.000000	-14.752915	-117.588041	-0.178779	-26.876046	-0.178779	-26.876046	-14.752909	-117.588665
1.050000	-14.360073	-118.909652	-0.194450	-28.193402	-0.194450	-28.193402	-14.360067	-118.910310
1.100000	-13.988110	-120.227902	-0.210684	-29.507396	-0.210684	-29.507396	-13.988103	-120.228595
1.150000	-13.635266	-121.542695	-0.227459	-30.817931	-0.227459	-30.817931	-13.635259	-121.543422
1.200000	-13.300001	-122.853946	-0.244753	-32.124919	-0.244753	-32.124919	-13.299994	-122.854707
1.250000	-12.980962	-124.161584	-0.262544	-33.428280	-0.262544	-33.428280	-12.980955	-124.162379
1.300000	-12.677035	-125.465467	-0.280818	-34.727860	-0.280818	-34.727860	-12.677027	-125.466295
1.350000	-12.387067	-126.765623	-0.299540	-36.023676	-0.299540	-36.023676	-12.387060	-126.766485
1.400000	-12.110108	-128.062010	-0.318688	-37.315673	-0.318688	-37.315673	-12.110101	-128.062905
1.450000	-11.845301	-129.354593	-0.338238	-38.603803	-0.338238	-38.603803	-11.845294	-129.355522
1.500000	-11.591877	-130.643344	-0.358166	-39.888026	-0.358166	-39.888026	-11.591870	-130.644306
1.550000	-11.349138	-131.928242	-0.378449	-41.168311	-0.378449	-41.168311	-11.349131	-131.929237
1.600000	-11.116451	-133.209270	-0.399064	-42.444631	-0.399064	-42.444631	-11.116444	-133.210299
1.650000	-10.893238	-134.486419	-0.419986	-43.716968	-0.419986	-43.716968	-10.893232	-134.487482
1.700000	-10.678973	-135.759683	-0.441194	-44.985310	-0.441194	-44.985310	-10.678967	-135.760779
1.750000	-10.473171	-137.029062	-0.462663	-46.249650	-0.462663	-46.249650	-10.473165	-137.030191
1.800000	-10.275387	-138.294558	-0.484372	-47.509987	-0.484372	-47.509987	-10.275382	-138.295721
1.850000	-10.085213	-139.556182	-0.506299	-48.766328	-0.506299	-48.766328	-10.085207	-139.557378
1.900000	-9.902302	-140.813902	-0.528422	-50.018640	-0.528422	-50.018640	-9.902297	-140.815133
1.950000	-9.726303	-142.067738	-0.550720	-51.266939	-0.550720	-51.266939	-9.726298	-142.069003
2.000000	-9.556855	-143.317751	-0.573171	-52.511290	-0.573171	-52.511290	-9.556849	-143.319052
2.050000	-9.393654	-144.563967	-0.595753	-53.751717	-0.595753	-53.751717	-9.393649	-144.565303
2.100000	-9.236418	-145.806415	-0.618446	-54.988250	-0.618446	-54.988250	-9.236413	-145.807786
2.150000	-9.084883	-147.045125	-0.641232	-56.220922	-0.641232	-56.220922	-9.084878	-147.046532
2.200000	-8.938803	-148.280135	-0.664090	-57.449771	-0.664090	-57.449771	-8.938798	-148.281578
2.250000	-8.797946	-149.511483	-0.687002	-58.674836	-0.687002	-58.674836	-8.797941	-149.512963
2.300000	-8.662095	-150.739213	-0.709950	-59.896162	-0.709950	-59.896162	-8.662090	-150.740730
2.350000	-8.531047	-151.963368	-0.732917	-61.113794	-0.732917	-61.113794	-8.531042	-151.964923
2.400000	-8.404610	-153.183999	-0.755884	-62.327782	-0.755884	-62.327782	-8.404604	-153.185592
2.450000	-8.282602	-154.401157	-0.778834	-63.538177	-0.778834	-63.538177	-8.282597	-154.402789
2.500000	-8.164854	-155.614897	-0.801753	-64.745034	-0.801753	-64.745034	-8.164848	-155.616568
2.550000	-8.051259	-156.825205	-0.824620	-65.948335	-0.824620	-65.948335	-8.051253	-156.826914
2.600000	-7.941608	-158.032214	-0.847422	-67.148216	-0.847422	-67.148216	-7.941602	-158.033963
2.650000	-7.835758	-159.235987	-0.870145	-68.344736	-0.870145	-68.344736	-7.835752	-159.237777
2.700000	-7.733571	-160.436589	-0.892774	-69.537959	-0.892774	-69.537959	-7.733564	-160.438420
2.750000	-7.634918	-161.634088	-0.915294	-70.727948	-0.915294	-70.727948	-7.634912	-161.635960
2.800000	-7.539678	-162.828552	-0.937693	-71.914769	-0.937693	-71.914769	-7.539671	-162.830466
2.850000	-7.447732	-164.020053	-0.959955	-73.098489	-0.959955	-73.098489	-7.447725	-164.022009
2.900000	-7.358971	-165.208663	-0.982069	-74.279177	-0.982069	-74.279177	-7.358963	-165.210661
2.950000	-7.273288	-166.394457	-1.004022	-75.456903	-1.004022	-75.456903	-7.273281	-166.396498
3.000000	-7.190585	-167.577511	-1.025801	-76.631738	-1.025801	-76.631738	-7.190577	-167.579595
3.050000	-7.110764	-168.757902	-1.047395	-77.803756	-1.047395	-77.803756	-7.110757	-168.760030
3.100000	-7.033736	-169.935709	-1.068792	-78.973029	-1.068792	-78.973029	-7.033728	-169.937881
3.150000	-6.959698	-171.110671	-1.089944	-80.139268	-1.089944	-80.139268	-6.959689	-171.112888
3.200000	-6.888014	-172.283539	-1.110910	-81.303264	-1.110910	-81.303264	-6.888006	-172.285800
3.250000	-6.818874	-173.454068	-1.131646	-82.464747	-1.131646	-82.464747	-6.818865	-173.456374
3.300000	-6.752201	-174.622341	-1.152144	-83.623796	-1.152144	-83.623796	-6.752192	-174.624693
3.350000	-6.687924	-175.788441	-1.172392	-84.780489	-1.172392	-84.780489	-6.687915	-175.790839
3.400000	-6.625974	-176.952453	-1.192382	-85.934907	-1.192382	-85.934907	-6.625965	-176.954898
3.450000	-6.566285	-178.114461	-1.212104	-87.087133	-1.212104	-87.087133	-6.566275	-178.116953
3.500000	-6.508794	-179.274551	-1.231551	-88.237247	-1.231551	-88.237247	-6.508784	-179.277089
3.550000	-6.453441	179.567193	-1.250713	-89.385335	-1.250713	-89.385335	-6.453431	179.564608
3.600000	-6.400169	178.410686	-1.269583	-90.531479	-1.269583	-90.531479	-6.400158	178.408053
3.650000	-6.348921	177.255841	-1.288153	-91.675764	-1.288153	-91.675764	-6.348911	177.253160
3.700000	-6.299646	176.102573	-1.306416	-92.818277	-1.306416	-92.818277	-6.299635	176.099843
3.750000	-6.252292	174.950796	-1.324366	-93.959104	-1.324366	-93.959104	-6.252281	174.948018
3.800000	-6.206880	173.800483	-1.341979	-95.098265	-1.341979	-95.098265	-6.206869	173.797656
3.850000	-6.163292	172.651483	-1.359266	-96.235923	-1.359266	-96.235923	-6.163281	172.648607
3.900000	-6.121484	171.503712	-1.376220	-97.372164	-1.376220	-97.372164	-6.121473	171.500786
3.950000	-6.081412	170.357085	-1.392836	-98.507079	-1.392836	-98.507079	-6.081401	170.354109
4.000000	-6.043036	169.211519	-1.409110	-99.640754	-1.409110	-99.640754	-6.043024	169.208493
4.050000	-6.006316	168.066930	-1.425037	-100.773280	-1.425037	-100.773280	-6.006304	168.063854
4.100000	-5.971214	166.923236	-1.440612	-101.904745	-1.440612	-101.904745	-5.971202	166.920108
4.150000	-5.937694	165.780354	-1.455831	-103.035239	-1.455831	-103.035239	-5.937681	165.777175
4.200000	-5.905720	164.638204	-1.470693	-104.164852	-1.470693	-104.164852	-5.905708	164.634973
4.250000	-5.875260	163.496704	-1.485192	-105.293673	-1.485192	-105.293673	-5.875248	163.493422
4.300000	-5.846281	162.355775	-1.499327	-106.421792	-1.499327	-106.421792	-5.846268	162.352441
4.350000	-5.818752	161.215339	-1.513095	-107.549297	-1.513095	-107.549297	-5.818739	161.211952
4.400000	-5.792642	160.075317	-1.526494	-108.676278	-1.526494	-108.676278	-5.792629	160.071877
4.450000	-5.767923	158.935633	-1.539523	-109.802824	-1.539523	-109.802824	-5.767910	158.932139
4.500000	-5.744567	157.796211	-1.552180	-110.929023	-1.552180	-110.929023	-5.744554	157.792663
4.550000	-5.722547	156.656975	-1.564464	-112.054963	-1.564464	-112.054963	-5.722534	156.653373
4.600000	-5.701838	155.517853	-1.576376	-113.180731	-1.576376	-113.180731	-5.701824	155.514197
4.650000	-5.682414	154.378771	-1.587914	-114.306414	-1.587914	-114.306414	-5.682400	154.375060
4.700000	-5.664252	153.239659	-1.599078	-115.432099	-1.599078	-115.432099	-5.664238	153.235893
4.750000	-5.647327	152.100447	-1.609870	-116.557871	-1.609870	-116.557871	-5.647313	152.096624
4.800000	-5.631618	150.961064	-1.620290	-117.683815	-1.620290	-117.683815	-5.631603	150.957185
4.850000	-5.617102	149.821445	-1.630339	-118.810015	-1.630339	-118.810015	-5.617087	149.817509
4.900000	-5.603759	148.681522	-1.640018	-119.936553	-1.640018	-119.936553	-5.603744	148.677529
4.950000	-5.591568	147.541231	-1.649330	-121.063512	-1.649330	-121.063512	-5.591552	147.537180
5.000000	-5.580509	146.400507	-1.658276	-122.190974	-1.658276	-122.190974	-5.580493	146.396398
5.050000	-5.570609	145.259265	-1.666843	-123.319046	-1.666843	-123.319046	-5.570594	145.255097
5.100000	-5.561803	144.117462	-1.675050	-124.447786	-1.675050	-124.447786	-5.561787	144.113235
5.150000	-5.554071	142.975040	-1.682899	-125.577272	-1.682899	-125.577272	-5.554054	142.970753
5.200000	-5.547395	141.831940	-1.690394	-126.707580	-1.690394	-126.707580	-5.547378	141.827592
5.250000	-5.541759	140.688107	-1.697538	-127.838785	-1.697538	-127.838785	-5.541742	140.683698
5.300000	-5.537145	139.543485	-1.704336	-128.970961	-1.704336	-128.970961	-5.537128	139.539014
5.350000	-5.533538	138.398021	-1.710791	-130.104180	-1.710791	-130.104180	-5.533520	138.393488
5.400000	-5.530920	137.251664	-1.716907	-131.238513	-1.716907	-131.238513	-5.530902	137.247068
5.450000	-5.529276	136.104363	-1.722690	-132.374030	-1.722690	-132.374030	-5.529258	136.099704
5.500000	-5.528591	134.956069	-1.728143	-133.510800	-1.728143	-133.510800	-5.528572	134.951346
5.550000	-5.528849	133.806736	-1.733271	-134.648888	-1.733271	-134.648888	-5.528830	133.801949
5.600000	-5.530036	132.656318	-1.738081	-135.788359	-1.738081	-135.788359	-5.530016	132.651465
5.650000	-5.532136	131.504771	-1.742577	-136.929278	-1.742577	-136.929278	-5.532116	131.499852
5.700000	-5.535135	130.352052	-1.746765	-138.071706	-1.746765	-138.071706	-5.535115	130.347066
5.750000	-5.539018	129.198121	-1.750650	-139.215704	-1.750650	-139.215704	-5.538998	129.193068
5.800000	-5.543772	128.042939	-1.754239	-140.361330	-1.754239	-140.361330	-5.543751	128.037818
5.850000	-5.549383	126.886467	-1.757538	-141.508641	-1.757538	-141.508641	-5.549361	126.881278
5.900000	-5.555836	125.728671	-1.760553	-142.657692	-1.760553	-142.657692	-5.555814	125.723412
5.950000	-5.563117	124.569516	-1.763290	-143.808538	-1.763290	-143.808538	-5.563095	124.564187
6.000000	-5.571213	123.408969	-1.765756	-144.961229	-1.765756	-144.961229	-5.571190	123.403569
6.050000	-5.580110	122.246999	-1.767958	-146.115816	-1.767958	-146.115816	-5.580087	122.241528
6.100000	-5.589795	121.083577	-1.769903	-147.272348	-1.769903	-147.272348	-5.589771	121.078034
6.150000	-5.600253	119.918675	-1.771597	-148.430870	-1.771597	-148.430870	-5.600229	119.913060
6.200000	-5.611471	118.752269	-1.773049	-149.591428	-1.773049	-149.591428	-5.611447	118.746580
6.250000	-5.623436	117.584332	-1.774264	-150.754064	-1.774264	-150.754064	-5.623411	117.578569
6.300000	-5.636164	116.414774	-1.775241	-151.918914	-1.775241	-151.918914	-5.636138	116.408937
6.350000	-5.649609	115.243642	-1.775998	-153.085926	-1.775998	-153.085926	-5.649582	115.237729
6.400000	-5.663758	114.070915	-1.776541	-154.255137	-1.776541	-154.255137	-5.663731	114.064927
6.450000	-5.678597	112.896578	-1.776879	-155.426583	-1.776879	-155.426583	-5.678569	112.890513
6.500000	-5.694111	111.720615	-1.777020	-156.600298	-1.777020	-156.600298	-5.694083	111.714472
6.550000	-5.710287	110.543011	-1.776970	-157.776312	-1.776970	-157.776312	-5.710258	110.536791
6.600000	-5.727111	109.363755	-1.776738	-158.954656	-1.776738	-158.954656	-5.727082	109.357457
6.650000	-5.744569	108.182837	-1.776331	-160.135358	-1.776331	-160.135358	-5.744539	108.176460
6.700000	-5.762645	107.000249	-1.775758	-161.318445	-1.775758	-161.318445	-5.762614	106.993792
6.750000	-5.781326	105.815983	-1.775026	-162.503939	-1.775026	-162.503939	-5.781294	105.809446
6.800000	-5.800597	104.630036	-1.774143	-163.691864	-1.774143	-163.691864	-5.800564	104.623418
6.850000	-5.820442	103.442403	-1.773117	-164.882241	-1.773117	-164.882241	-5.820409	103.435705
6.900000	-5.840847	102.253085	-1.771955	-166.075089	-1.771955	-166.075089	-5.840814	102.246305
6.950000	-5.861798	101.062081	-1.770667	-167.270425	-1.770667	-167.270425	-5.861763	101.055219
7.000000	-5.883277	99.869394	-1.769259	-168.468264	-1.769259	-168.468264	-5.883242	99.862450
7.050000	-5.905270	98.675028	-1.767739	-169.668620	-1.767739	-169.668620	-5.905235	98.668002
7.100000	-5.927762	97.478990	-1.766116	-170.871505	-1.766116	-170.871505	-5.927726	97.471881
7.150000	-5.950736	96.281288	-1.764396	-172.076929	-1.764396	-172.076929	-5.950699	96.274096
7.200000	-5.974176	95.081932	-1.762588	-173.284901	-1.762588	-173.284901	-5.974138	95.074657
7.250000	-5.998066	93.880934	-1.760700	-174.495428	-1.760700	-174.495428	-5.998027	93.873575
7.300000	-6.022389	92.678308	-1.758739	-175.708515	-1.758739	-175.708515	-6.022350	92.670865
7.350000	-6.047129	91.474070	-1.756713	-176.924166	-1.756713	-176.924166	-6.047089	91.466544
7.400000	-6.072269	90.268237	-1.754629	-178.142383	-1.754629	-178.142383	-6.072228	90.260627
7.450000	-6.097792	89.060831	-1.752494	-179.363166	-1.752494	-179.363166	-6.097750	89.053137
7.500000	-6.123680	87.851872	-1.750317	179.413485	-1.750317	179.413485	-6.123638	87.844094
7.550000	-6.149927	86.641320	-1.748103	178.187461	-1.748103	178.187461	-6.149884	86.633459
7.600000	-6.176503	85.429268	-1.745861	176.958878	-1.745861	176.958878	-6.176459	85.421324
7.650000	-6.203389	84.215745	-1.743598	175.727742	-1.743598	175.727742	-6.203345	84.207718
7.700000	-6.230568	83.000782	-1.741322	174.494058	-1.741322	174.494058	-6.230524	82.992672
7.750000	-6.258022	81.784412	-1.739039	173.257836	-1.739039	173.257836	-6.257977	81.776220
7.800000	-6.285732	80.566669	-1.736756	172.019083	-1.736756	172.019083	-6.285686	80.558395
7.850000	-6.313680	79.347591	-1.734479	170.777812	-1.734479	170.777812	-6.313634	79.339235
7.900000	-6.341847	78.127216	-1.732216	169.534032	-1.732216	169.534032	-6.341800	78.118779
7.950000	-6.370214	76.905588	-1.729973	168.287758	-1.729973	168.287758	-6.370166	76.897070
8.000000	-6.398763	75.682748	-1.727755	167.039003	-1.727755	167.039003	-6.398714	75.674151
8.050000	-6.427473	74.458744	-1.725570	165.787781	-1.725570	165.787781	-6.427424	74.450068
8.100000	-6.456327	73.233624	-1.723424	164.534109	-1.723424	164.534109	-6.456277	73.224870
8.150000	-6.485305	72.007438	-1.721321	163.278003	-1.721321	163.278003	-6.485254	71.998607
8.200000	-6.514387	70.780239	-1.719269	162.019482	-1.719269	162.019482	-6.514336	70.771333
8.250000	-6.543554	69.552084	-1.717273	160.758562	-1.717273	160.758562	-6.543502	69.543102
8.300000	-6.572787	68.323029	-1.715338	159.495265	-1.715338	159.495265	-6.572734	68.313973
8.350000	-6.602065	67.093134	-1.713471	158.229609	-1.713471	158.229609	-6.602013	67.084005
8.400000	-6.631371	65.862461	-1.711676	156.961614	-1.711676	156.961614	-6.631318	65.853262
8.450000	-6.660683	64.631076	-1.709958	155.691304	-1.709958	155.691304	-6.660630	64.621807
8.500000	-6.689983	63.399046	-1.708323	154.418698	-1.708323	154.418698	-6.689929	63.389708
8.550000	-6.719251	62.166439	-1.706776	153.143820	-1.706776	153.143820	-6.719197	62.157034
8.600000	-6.748468	60.933328	-1.705321	151.866691	-1.705321	151.866691	-6.748413	60.923858
8.650000	-6.777613	59.699786	-1.703964	150.587336	-1.703964	150.587336	-6.777558	59.690253
8.700000	-6.806669	58.465890	-1.702709	149.305778	-1.702709	149.305778	-6.806613	58.456295
8.750000	-6.835615	57.231719	-1.701561	148.022040	-1.701561	148.022040	-6.835559	57.222064
8.800000	-6.864422	55.997349	-1.700528	146.736053	-1.700528	146.736053	-6.864365	55.987636
8.850000	-6.893079	54.762875	-1.699611	145.447939	-1.699611	145.447939	-6.893023	54.753107
8.900000	-6.921569	53.528384	-1.698815	144.157719	-1.698815	144.157719	-6.921513	53.518563
8.950000	-6.949873	52.293964	-1.698142	142.865420	-1.698142	142.865420	-6.949816	52.284091
9.000000	-6.977972	51.059704	-1.697598	141.571065	-1.697598	141.571065	-6.977915	51.049782
9.050000	-7.005848	49.825696	-1.697186	140.274680	-1.697186	140.274680	-7.005791	49.815728
9.100000	-7.033483	48.592036	-1.696910	138.976289	-1.696910	138.976289	-7.033426	48.582024
9.150000	-7.060859	47.358820	-1.696775	137.675917	-1.696775	137.675917	-7.060803	47.348766
9.200000	-7.087961	46.126145	-1.696783	136.373589	-1.696783	136.373589	-7.087904	46.116052
9.250000	-7.114769	44.894112	-1.696940	135.069328	-1.696940	135.069328	-7.114713	44.883983
9.300000	-7.141268	43.662824	-1.697247	133.763160	-1.697247	133.763160	-7.141212	43.652661
9.350000	-7.167441	42.432382	-1.697710	132.455109	-1.697710	132.455109	-7.167386	42.422189
9.400000	-7.193272	41.202895	-1.698332	131.145198	-1.698332	131.145198	-7.193217	41.192674
9.450000	-7.218746	39.974467	-1.699117	129.833452	-1.699117	129.833452	-7.218692	39.964221
9.500000	-7.243848	38.747208	-1.700068	128.519894	-1.700068	128.519894	-7.243794	38.736941
9.550000	-7.268562	37.521227	-1.701189	127.204548	-1.701189	127.204548	-7.268509	37.510941
9.600000	-7.292875	36.296636	-1.702484	125.887436	-1.702484	125.887436	-7.292823	36.286335
9.650000	-7.316772	35.073548	-1.703956	124.568583	-1.703956	124.568583	-7.316721	35.063235
9.700000	-7.340240	33.852075	-1.705609	123.248011	-1.705609	123.248011	-7.340191	33.841753
9.750000	-7.363267	32.632332	-1.707448	121.925741	-1.707448	121.925741	-7.363219	32.622005
9.800000	-7.385840	31.414435	-1.709475	120.601797	-1.709475	120.601797	-7.385793	31.404105
9.850000	-7.407947	30.198500	-1.711696	119.276201	-1.711696	119.276201	-7.407901	30.188171
9.900000	-7.429576	28.984643	-1.714113	117.948975	-1.714113	117.948975	-7.429533	28.974319
9.950000	-7.450718	27.772981	-1.716731	116.620139	-1.716731	116.620139	-7.450676	27.762666
10.000000	-7.471361	26.563634	-1.719555	115.289716	-1.719555	115.289716	-7.471321	26.553330
