! freq	dB(S11)	phase(S11)	dB(S12)	phase(S12)	
!     	dB(S21)	phase(S21)	dB(S22)	phase(S22)	
!S-par simulation data
#  GHz  S  DB  R 50
0.000000	-83.725095	0.000000	-0.000566	0.000000	-0.000566	0.000000	-83.725095	0.000000
0.050000	-47.504855	-90.221855	-0.004493	-2.754955	-0.004493	-2.754955	-47.519425	-91.033432
0.100000	-41.657882	-93.454993	-0.009588	-5.476078	-0.009588	-5.476078	-41.669644	-94.982929
0.150000	-38.229830	-96.444638	-0.013587	-8.187338	-0.013587	-8.187338	-38.241703	-98.718401
0.200000	-35.801877	-99.236828	-0.017255	-10.895972	-0.017255	-10.895972	-35.813166	-102.261879
0.250000	-33.931539	-101.892613	-0.020891	-13.602638	-0.020891	-13.602638	-33.941606	-105.664033
0.300000	-32.417686	-104.467985	-0.024567	-16.307655	-0.024567	-16.307655	-32.426102	-108.976080
0.350000	-31.151666	-106.995138	-0.028284	-19.011450	-0.028284	-19.011450	-31.158125	-112.228038
0.400000	-30.069251	-109.492156	-0.032037	-21.714410	-0.032037	-21.714410	-30.073490	-115.436096
0.450000	-29.131244	-111.970433	-0.035830	-24.416891	-0.035830	-24.416891	-29.132970	-118.608405
0.500000	-28.307644	-114.439839	-0.039660	-27.119255	-0.039660	-27.119255	-28.306660	-121.754056
0.550000	-27.578297	-116.905743	-0.043526	-29.821735	-0.043526	-29.821735	-27.574438	-124.876637
0.600000	-26.929109	-119.372236	-0.047426	-32.524526	-0.047426	-32.524526	-26.922220	-127.977598
0.650000	-26.350336	-121.843145	-0.051352	-35.227815	-0.051352	-35.227815	-26.340258	-131.056833
0.700000	-25.831689	-124.321172	-0.055290	-37.931693	-0.055290	-37.931693	-25.818315	-134.115822
0.750000	-25.366482	-126.808942	-0.059228	-40.636260	-0.059228	-40.636260	-25.349714	-137.154086
0.800000	-24.950767	-129.309930	-0.063148	-43.341654	-0.063148	-43.341654	-24.930494	-140.169565
0.850000	-24.579783	-131.827098	-0.067034	-46.047960	-0.067034	-46.047960	-24.555915	-143.161288
0.900000	-24.249719	-134.363536	-0.070870	-48.755269	-0.070870	-48.755269	-24.222185	-146.127862
0.950000	-23.957931	-136.923055	-0.074642	-51.463702	-0.074642	-51.463702	-23.926672	-149.067054
1.000000	-23.702142	-139.509832	-0.078337	-54.173392	-0.078337	-54.173392	-23.667116	-151.976371
1.050000	-23.480512	-142.128586	-0.081943	-56.884496	-0.081943	-56.884496	-23.441685	-154.852867
1.100000	-23.291586	-144.784644	-0.085451	-59.597193	-0.085451	-59.597193	-23.248915	-157.693085
1.150000	-23.134242	-147.483967	-0.088853	-62.311690	-0.088853	-62.311690	-23.087653	-160.492971
1.200000	-23.007665	-150.233161	-0.092144	-65.028218	-0.092144	-65.028218	-22.957018	-163.247772
1.250000	-22.911301	-153.039474	-0.095319	-67.747036	-0.095319	-67.747036	-22.856369	-165.951911
1.300000	-22.845453	-155.912498	-0.098372	-70.468486	-0.098372	-70.468486	-22.785913	-168.597401
1.350000	-22.809328	-158.859993	-0.101306	-73.192823	-0.101306	-73.192823	-22.744801	-171.177509
1.400000	-22.802879	-161.892316	-0.104121	-75.920371	-0.104121	-75.920371	-22.732980	-173.682963
1.450000	-22.826165	-165.021678	-0.106820	-78.651469	-0.106820	-78.651469	-22.750552	-176.102752
1.500000	-22.879327	-168.262675	-0.109407	-81.386473	-0.109407	-81.386473	-22.797754	-178.423750
1.550000	-22.962573	-171.632827	-0.111891	-84.125755	-0.111891	-84.125755	-22.874930	179.369745
1.600000	-23.076141	-175.153171	-0.114281	-86.869695	-0.114281	-86.869695	-22.982491	177.296581
1.650000	-23.220232	-178.848946	-0.116589	-89.618688	-0.116589	-89.618688	-23.120851	175.379454
1.700000	-23.394903	177.249588	-0.118832	-92.373134	-0.118832	-92.373134	-23.290344	173.645768
1.750000	-23.599900	173.106177	-0.121029	-95.133446	-0.121029	-95.133446	-23.491077	172.128642
1.800000	-23.834402	168.677503	-0.123203	-97.900041	-0.123203	-97.900041	-23.722731	170.868089
1.850000	-24.096655	163.912112	-0.125381	-100.673343	-0.125381	-100.673343	-23.984234	169.912264
1.900000	-24.383517	158.744517	-0.127593	-103.453865	-0.127593	-103.453865	-24.273434	169.323327
1.950000	-24.689170	153.102773	-0.129878	-106.242057	-0.129878	-106.242057	-24.585836	169.171379
2.000000	-25.004427	146.914506	-0.132274	-109.038279	-0.132274	-109.038279	-24.913918	169.529838
2.050000	-25.315643	140.101909	-0.134828	-111.842977	-0.134828	-111.842977	-25.246106	170.481550
2.100000	-25.603260	132.597539	-0.137592	-114.656601	-0.137592	-114.656601	-25.565098	172.106021
2.150000	-25.841105	124.363562	-0.140628	-117.479614	-0.140628	-117.479614	-25.846601	174.462762
2.200000	-25.997252	115.418200	-0.144007	-120.312505	-0.144007	-120.312505	-26.059215	177.565469
2.250000	-26.037655	105.862687	-0.147836	-123.155822	-0.147836	-123.155822	-26.166812	-178.649413
2.300000	-25.936585	95.896643	-0.152291	-126.009948	-0.152291	-126.009948	-26.138206	-174.352153
2.350000	-25.669164	85.785544	-0.158147	-128.874748	-0.158147	-128.874748	-25.940458	-169.791097
2.400000	-25.241093	75.845820	-0.163652	-131.725660	-0.163652	-131.725660	-25.570859	-165.305332
2.450000	-24.671741	66.344401	-0.167039	-134.620247	-0.167039	-134.620247	-25.043387	-161.205794
2.500000	-23.991858	57.463110	-0.173668	-137.524089	-0.173668	-137.524089	-24.387620	-157.725149
2.550000	-23.234154	49.294946	-0.181326	-140.437536	-0.181326	-140.437536	-23.638387	-154.998477
2.600000	-22.431177	41.836784	-0.189976	-143.362723	-0.189976	-143.362723	-22.832248	-153.047051
2.650000	-21.607554	35.042348	-0.199726	-146.300440	-0.199726	-146.300440	-21.997728	-151.834338
2.700000	-20.781284	28.840710	-0.210695	-149.251114	-0.210695	-149.251114	-21.155998	-151.289573
2.750000	-19.964657	23.153725	-0.223011	-152.215026	-0.223011	-152.215026	-20.321620	-151.329871
2.800000	-19.165570	17.906022	-0.236807	-155.192371	-0.236807	-155.192371	-19.503984	-151.873346
2.850000	-18.388431	13.032243	-0.252238	-158.183390	-0.252238	-158.183390	-18.708392	-152.848454
2.900000	-17.636168	8.470888	-0.269440	-161.188078	-0.269440	-161.188078	-17.938317	-154.187363
2.950000	-16.910053	4.171332	-0.288559	-164.206400	-0.288559	-164.206400	-17.195300	-155.834236
3.000000	-16.210319	0.091985	-0.309750	-167.238292	-0.309750	-167.238292	-16.479679	-157.743247
3.050000	-15.536639	-3.801810	-0.333173	-170.283623	-0.333173	-170.283623	-15.791144	-159.876191
3.100000	-14.888360	-7.538866	-0.358990	-173.342184	-0.358990	-173.342184	-15.129005	-162.201242
3.150000	-14.264544	-11.142522	-0.387382	-176.413761	-0.387382	-176.413761	-14.492256	-164.692597
3.200000	-13.664314	-14.632984	-0.418521	-179.497975	-0.418521	-179.497975	-13.879944	-167.327655
3.250000	-13.086846	-18.027475	-0.452562	177.405701	-0.452562	177.405701	-13.291176	-170.086821
3.300000	-12.531217	-21.339772	-0.489677	174.297817	-0.489677	174.297817	-12.724948	-172.954203
3.350000	-11.996542	-24.581393	-0.530035	171.179016	-0.530035	171.179016	-12.180306	-175.916190
3.400000	-11.481989	-27.761967	-0.573803	168.050038	-0.573803	168.050038	-11.656352	-178.961025
3.450000	-10.986758	-30.889420	-0.621155	164.911698	-0.621155	164.911698	-11.152223	177.921364
3.500000	-10.510101	-33.970300	-0.672271	161.764904	-0.672271	161.764904	-10.667118	174.739752
3.550000	-10.051433	-37.010596	-0.727274	158.610771	-0.727274	158.610771	-10.200406	171.502697
3.600000	-9.610136	-40.014910	-0.786310	155.450434	-0.786310	155.450434	-9.751430	168.217335
3.650000	-9.185642	-42.987030	-0.849513	152.285126	-0.849513	152.285126	-9.319582	164.890119
3.700000	-8.777423	-45.930039	-0.917008	149.116166	-0.917008	149.116166	-8.904302	161.526938
3.750000	-8.384987	-48.846416	-0.988905	145.944962	-0.988905	145.944962	-8.505071	158.133206
3.800000	-8.007868	-51.737865	-1.065343	142.773008	-1.065343	142.773008	-8.121392	154.713716
3.850000	-7.645661	-54.606165	-1.146362	139.601886	-1.146362	139.601886	-7.752841	151.273471
3.900000	-7.297953	-57.452414	-1.232026	136.433216	-1.232026	136.433216	-7.398987	147.816853
3.950000	-6.964352	-60.277378	-1.322382	133.268666	-1.322382	133.268666	-7.059419	144.347993
4.000000	-6.644479	-63.081534	-1.417457	130.109947	-1.417457	130.109947	-6.733744	140.870804
4.050000	-6.337967	-65.865117	-1.517261	126.958795	-1.517261	126.958795	-6.421580	137.388997
4.100000	-6.044482	-68.627988	-1.621809	123.817056	-1.621809	123.817056	-6.122579	133.906121
4.150000	-5.763664	-71.370112	-1.731050	120.686458	-1.731050	120.686458	-5.836371	130.425587
4.200000	-5.495154	-74.091264	-1.844923	117.568721	-1.844923	117.568721	-5.562589	126.950588
4.250000	-5.238603	-76.791054	-1.963355	114.465567	-1.963355	114.465567	-5.300874	123.484158
4.300000	-4.993664	-79.469014	-2.086256	111.378680	-2.086256	111.378680	-5.050872	120.029176
4.350000	-4.759988	-82.124616	-2.213517	108.309698	-2.213517	108.309698	-4.812227	116.588371
4.400000	-4.537257	-84.757172	-2.345023	105.260314	-2.345023	105.260314	-4.584613	113.164421
4.450000	-4.325124	-87.366096	-2.480625	102.232062	-2.480625	102.232062	-4.367679	109.759786
4.500000	-4.123284	-89.950604	-2.620172	99.226584	-2.620172	99.226584	-4.161114	106.376952
4.550000	-3.931272	-92.510662	-2.763453	96.244734	-2.763453	96.244734	-3.964452	103.017559
4.600000	-3.748781	-95.045548	-2.910298	93.287939	-2.910298	93.287939	-3.777380	99.683730
4.650000	-3.575458	-97.554776	-3.060511	90.357348	-3.060511	90.357348	-3.599545	96.377258
4.700000	-3.410957	-100.037912	-3.213886	87.454007	-3.213886	87.454007	-3.430596	93.099785
4.750000	-3.254930	-102.494574	-3.370212	84.578858	-3.370212	84.578858	-3.270184	89.852798
4.800000	-3.107035	-104.924447	-3.529269	81.732735	-3.529269	81.732735	-3.117966	86.637637
4.850000	-2.966934	-107.327276	-3.690836	78.916368	-3.690836	78.916368	-2.973602	83.455494
4.900000	-2.834293	-109.702878	-3.854685	76.130380	-3.854685	76.130380	-2.836757	80.307416
4.950000	-2.708783	-112.051137	-4.020590	73.375290	-4.020590	73.375290	-2.707103	77.194315
5.000000	-2.590084	-114.372004	-4.188323	70.651519	-4.188323	70.651519	-2.584317	74.116969
5.050000	-2.477986	-116.664905	-4.357615	67.960080	-4.357615	67.960080	-2.468190	71.076830
5.100000	-2.372072	-118.930526	-4.528271	65.300517	-4.528271	65.300517	-2.358305	68.073644
5.150000	-2.272042	-121.169017	-4.700071	62.672961	-4.700071	62.672961	-2.254365	65.107817
5.200000	-2.177609	-123.380590	-4.872799	60.077465	-4.872799	60.077465	-2.156080	62.179650
5.250000	-2.088493	-125.565508	-5.046242	57.514002	-5.046242	57.514002	-2.063170	59.289344
5.300000	-2.004423	-127.724090	-5.220194	54.982472	-5.220194	54.982472	-1.975368	56.437006
5.350000	-1.925140	-129.856701	-5.394455	52.482708	-5.394455	52.482708	-1.892414	53.622660
5.400000	-1.850395	-131.963746	-5.568831	50.014484	-5.568831	50.014484	-1.814057	50.846248
5.450000	-1.779948	-134.045673	-5.743134	47.577514	-5.743134	47.577514	-1.740060	48.107642
5.500000	-1.713569	-136.102962	-5.917184	45.171464	-5.917184	45.171464	-1.670194	45.406650
5.550000	-1.651040	-138.136126	-6.090807	42.795955	-6.090807	42.795955	-1.604239	42.743017
5.600000	-1.592150	-140.145701	-6.263839	40.450563	-6.263839	40.450563	-1.541989	40.116439
5.650000	-1.536733	-142.132004	-6.436073	38.135149	-6.436073	38.135149	-1.483274	37.526958
5.700000	-1.484594	-144.095636	-6.607354	35.849207	-6.607354	35.849207	-1.427903	34.974164
5.750000	-1.435520	-146.037444	-6.777586	33.591895	-6.777586	33.591895	-1.375662	32.457225
5.800000	-1.389339	-147.958036	-6.946633	31.362671	-6.946633	31.362671	-1.326381	29.975675
5.850000	-1.345890	-149.858031	-7.114364	29.160976	-7.114364	29.160976	-1.279899	27.529023
5.900000	-1.305019	-151.738052	-7.280659	26.986230	-7.280659	26.986230	-1.236062	25.116753
5.950000	-1.266582	-153.598731	-7.445402	24.837842	-7.445402	24.837842	-1.194728	22.738330
6.000000	-1.230440	-155.440697	-7.608484	22.715212	-7.608484	22.715212	-1.155758	20.393204
6.050000	-1.196466	-157.264583	-7.769802	20.617728	-7.769802	20.617728	-1.119025	18.080810
6.100000	-1.164535	-159.071019	-7.929260	18.544777	-7.929260	18.544777	-1.084407	15.800574
6.150000	-1.134532	-160.860631	-8.086767	16.495738	-8.086767	16.495738	-1.051789	13.551914
6.200000	-1.106349	-162.634042	-8.242238	14.469990	-8.242238	14.469990	-1.021063	11.334243
6.250000	-1.079883	-164.391868	-8.395593	12.466913	-8.395593	12.466913	-0.992128	9.146970
6.300000	-1.055085	-166.134248	-8.546599	10.486588	-8.546599	10.486588	-0.964937	6.990457
6.350000	-1.031811	-167.862296	-8.695346	8.527655	-8.695346	8.527655	-0.939345	4.863117
6.400000	-1.009976	-169.576604	-8.841770	6.589502	-8.841770	6.589502	-0.915268	2.764359
6.450000	-0.989499	-171.277756	-8.985810	4.671521	-8.985810	4.671521	-0.892627	0.693596
6.500000	-0.970305	-172.966325	-9.127411	2.773112	-9.127411	2.773112	-0.871346	-1.349756
6.550000	-0.952323	-174.642875	-9.266520	0.893680	-9.266520	0.893680	-0.851358	-3.366275
6.600000	-0.935486	-176.307959	-9.403090	-0.967363	-9.403090	-0.967363	-0.832594	-5.356536
6.650000	-0.919732	-177.962120	-9.537075	-2.810594	-9.537075	-2.810594	-0.814994	-7.321104
6.700000	-0.904891	-179.607039	-9.668972	-4.638525	-9.668972	-4.638525	-0.798381	-9.263396
6.750000	-0.891172	178.759527	-9.797465	-6.447071	-9.797465	-6.447071	-0.782986	-11.177145
6.800000	-0.878304	177.134774	-9.923590	-8.240660	-9.923590	-8.240660	-0.768520	-13.068602
6.850000	-0.866339	175.519264	-10.046789	-10.017988	-10.046789	-10.017988	-0.755047	-14.935541
6.900000	-0.855184	173.912008	-10.167291	-11.780480	-10.167291	-11.780480	-0.742468	-16.779840
6.950000	-0.844801	172.312598	-10.285029	-13.528521	-10.285029	-13.528521	-0.730750	-18.601808
7.000000	-0.835185	170.720921	-10.399771	-15.261961	-10.399771	-15.261961	-0.719891	-20.400920
7.050000	-0.826254	169.136082	-10.511749	-16.982124	-10.511749	-16.982124	-0.709806	-22.178957
7.100000	-0.817975	167.557654	-10.620941	-18.689478	-10.620941	-18.689478	-0.700464	-23.936392
7.150000	-0.810316	165.985218	-10.727326	-20.384485	-10.727326	-20.384485	-0.691831	-25.673689
7.200000	-0.803245	164.418368	-10.830886	-22.067595	-10.830886	-22.067595	-0.683880	-27.391303
7.250000	-0.796750	162.856849	-10.931481	-23.738912	-10.931481	-23.738912	-0.676601	-29.089107
7.300000	-0.790830	161.300484	-11.028882	-25.398317	-11.028882	-25.398317	-0.670001	-30.766561
7.350000	-0.785414	159.748452	-11.123421	-27.047207	-11.123421	-27.047207	-0.663999	-32.425741
7.400000	-0.780477	158.200382	-11.215084	-28.685993	-11.215084	-28.685993	-0.658575	-34.067067
7.450000	-0.775998	156.655908	-11.303860	-30.315075	-11.303860	-30.315075	-0.653707	-35.690956
7.500000	-0.771955	155.114676	-11.389740	-31.934847	-11.389740	-31.934847	-0.649375	-37.297813
7.550000	-0.768330	153.576333	-11.472713	-33.545692	-11.472713	-33.545692	-0.645562	-38.888040
7.600000	-0.765134	152.040715	-11.552482	-35.147333	-11.552482	-35.147333	-0.642288	-40.460765
7.650000	-0.762331	150.507332	-11.629202	-36.740551	-11.629202	-36.740551	-0.639515	-42.017122
7.700000	-0.759890	148.975766	-11.703002	-38.326015	-11.703002	-38.326015	-0.637210	-43.558084
7.750000	-0.757796	147.445693	-11.773876	-39.904073	-11.773876	-39.904073	-0.635358	-45.084022
7.800000	-0.756036	145.916801	-11.841818	-41.475065	-11.841818	-41.475065	-0.633948	-46.595301
7.850000	-0.754597	144.388777	-11.906822	-43.039323	-11.906822	-43.039323	-0.632966	-48.092281
7.900000	-0.753470	142.861321	-11.968844	-44.597100	-11.968844	-44.597100	-0.632409	-49.575149
7.950000	-0.752669	141.334121	-12.027574	-46.148191	-12.027574	-46.148191	-0.632301	-51.043042
8.000000	-0.752153	139.806831	-12.083361	-47.693568	-12.083361	-47.693568	-0.632590	-52.497750
8.050000	-0.751911	138.279162	-12.136202	-49.233534	-12.136202	-49.233534	-0.633268	-53.939609
8.100000	-0.751935	136.750828	-12.186093	-50.768387	-12.186093	-50.768387	-0.634328	-55.368950
8.150000	-0.752217	135.221550	-12.233031	-52.298418	-12.233031	-52.298418	-0.635762	-56.786099
8.200000	-0.752750	133.691048	-12.277012	-53.823913	-12.277012	-53.823913	-0.637563	-58.191379
8.250000	-0.753540	132.158940	-12.317841	-55.344910	-12.317841	-55.344910	-0.639749	-59.584421
8.300000	-0.754580	130.624923	-12.355536	-56.861752	-12.355536	-56.861752	-0.642312	-60.965656
8.350000	-0.755871	129.088595	-12.389997	-58.374653	-12.389997	-58.374653	-0.645257	-62.335108
8.400000	-0.757335	127.550499	-12.422212	-59.884924	-12.422212	-59.884924	-0.648469	-63.696435
8.450000	-0.759096	126.008881	-12.450428	-61.391048	-12.450428	-61.391048	-0.652143	-65.044103
8.500000	-0.761045	124.464689	-12.476091	-62.894780	-12.476091	-62.894780	-0.656112	-66.383270
8.550000	-0.763181	122.917806	-12.499187	-64.396236	-12.499187	-64.396236	-0.660378	-67.714070
8.600000	-0.765569	121.366934	-12.518756	-65.894900	-12.518756	-65.894900	-0.665043	-69.033824
8.650000	-0.768189	119.811931	-12.535037	-67.391355	-12.535037	-67.391355	-0.670082	-70.343731
8.700000	-0.770993	118.253479	-12.548733	-68.886271	-12.548733	-68.886271	-0.675414	-71.646129
8.750000	-0.773980	116.691461	-12.559837	-70.379761	-12.559837	-70.379761	-0.681041	-72.941150
8.800000	-0.777266	115.123082	-12.566682	-71.871422	-12.566682	-71.871422	-0.687149	-74.224683
8.850000	-0.780736	113.550493	-12.570919	-73.362272	-12.570919	-73.362272	-0.693555	-75.501551
8.900000	-0.784393	111.973576	-12.572540	-74.852426	-12.572540	-74.852426	-0.700261	-76.771884
8.950000	-0.788290	110.390886	-12.570825	-76.341942	-12.570825	-76.341942	-0.707350	-78.034185
9.000000	-0.792448	108.801562	-12.565515	-77.831204	-12.565515	-77.831204	-0.714857	-79.288363
9.050000	-0.796803	107.207129	-12.557559	-79.320509	-12.557559	-79.320509	-0.722675	-80.536842
9.100000	-0.801356	105.607465	-12.546956	-80.809973	-12.546956	-80.809973	-0.730807	-81.779750
9.150000	-0.806226	103.999235	-12.532226	-82.300138	-12.532226	-82.300138	-0.739432	-83.014548
9.200000	-0.811329	102.384578	-12.514566	-83.791159	-12.514566	-83.791159	-0.748417	-84.244010
9.250000	-0.816650	100.763865	-12.494218	-85.283121	-12.494218	-85.283121	-0.757737	-85.468744
9.300000	-0.822236	99.135764	-12.470677	-86.776413	-12.470677	-86.776413	-0.767458	-86.688120
9.350000	-0.828163	97.498029	-12.443148	-88.271859	-12.443148	-88.271859	-0.777688	-87.901430
9.400000	-0.834337	95.853357	-12.412880	-89.769087	-12.412880	-89.769087	-0.788283	-89.110869
9.450000	-0.840763	94.201605	-12.379876	-91.268232	-12.379876	-91.268232	-0.799249	-90.316569
9.500000	-0.847572	92.539077	-12.342800	-92.770626	-12.342800	-92.770626	-0.810767	-91.517273
9.550000	-0.854712	90.867300	-12.302392	-94.276137	-12.302392	-94.276137	-0.822755	-92.714361
9.600000	-0.862145	89.187458	-12.259185	-95.784519	-12.259185	-95.784519	-0.835157	-93.908598
9.650000	-0.869905	87.498601	-12.212908	-97.296244	-12.212908	-97.296244	-0.848019	-95.099913
9.700000	-0.878159	85.796257	-12.162096	-98.813405	-12.162096	-98.813405	-0.861557	-96.287690
9.750000	-0.886677	84.086894	-12.109143	-100.333557	-12.109143	-100.333557	-0.875459	-97.473922
9.800000	-0.895680	82.364554	-12.052078	-101.859455	-12.052078	-101.859455	-0.890017	-98.657690
9.850000	-0.905124	80.630639	-11.991515	-103.390762	-11.991515	-103.390762	-0.905165	-99.839754
9.900000	-0.915014	78.885141	-11.927566	-104.927725	-11.927566	-104.927725	-0.920908	-101.020521
9.950000	-0.925421	77.126385	-11.859808	-106.471429	-11.859808	-106.471429	-0.937333	-102.200236
10.000000	-0.936294	75.355838	-11.788835	-108.021362	-11.788835	-108.021362	-0.954374	-103.379379
