! freq	dB(S11)	phase(S11)	dB(S12)	phase(S12)	
!     	dB(S21)	phase(S21)	dB(S22)	phase(S22)	
!S-par simulation data
#  GHz  S  DB  R 50
0.000000	-82.546418	0.000000	-0.000648	0.000000	-0.000648	0.000000	-82.546418	0.000000
0.050000	-65.689801	53.297767	-0.001573	-1.738226	-0.001573	-1.738226	-62.530718	89.554807
0.100000	-57.360439	47.233716	-0.003837	-3.482628	-0.003837	-3.482628	-56.315835	97.562418
0.150000	-52.238814	45.152605	-0.006558	-5.234057	-0.006558	-5.234057	-52.441129	103.188445
0.200000	-48.805762	43.629014	-0.009228	-6.989893	-0.009228	-6.989893	-49.491343	107.781102
0.250000	-46.285762	41.298553	-0.011720	-8.747778	-0.011720	-8.747778	-47.031448	111.569586
0.300000	-44.265709	38.039129	-0.014056	-10.506226	-0.014056	-10.506226	-44.882541	114.663787
0.350000	-42.526894	34.152604	-0.016295	-12.264536	-0.016295	-12.264536	-42.956880	117.149456
0.400000	-40.958998	29.971415	-0.018481	-14.022470	-0.018481	-14.022470	-41.205806	119.103841
0.450000	-39.508220	25.738741	-0.020647	-15.780033	-0.020647	-15.780033	-39.599013	120.595197
0.500000	-38.148314	21.600982	-0.022814	-17.537358	-0.022814	-17.537358	-38.115357	121.682384
0.550000	-36.865697	17.632604	-0.024997	-19.294634	-0.024997	-19.294634	-36.738625	122.416233
0.600000	-35.652323	13.862577	-0.027209	-21.052079	-0.027209	-21.052079	-35.455620	122.841333
0.650000	-34.501562	10.296047	-0.029462	-22.809921	-0.029462	-22.809921	-34.254396	122.994734
0.700000	-33.409038	6.922192	-0.031770	-24.568388	-0.031770	-24.568388	-33.125926	122.912627
0.750000	-32.371495	3.722469	-0.034148	-26.327682	-0.034148	-26.327682	-32.063184	122.628625
0.800000	-31.384939	0.678895	-0.036611	-28.087996	-0.036611	-28.087996	-31.059326	122.169489
0.850000	-30.447187	-2.229732	-0.039174	-29.849465	-0.039174	-29.849465	-30.109986	121.562185
0.900000	-29.551381	-5.011838	-0.041864	-31.612330	-0.041864	-31.612330	-29.206895	120.817926
0.950000	-28.696255	-7.686710	-0.044698	-33.376695	-0.044698	-33.376695	-28.347569	119.958644
1.000000	-27.878867	-10.267372	-0.047697	-35.142685	-0.047697	-35.142685	-27.528239	118.998781
1.050000	-27.096524	-12.765236	-0.050883	-36.910411	-0.050883	-36.910411	-26.745611	117.950666
1.100000	-26.346772	-15.190251	-0.054280	-38.679970	-0.054280	-38.679970	-25.996789	116.824844
1.150000	-25.627372	-17.551075	-0.057911	-40.451443	-0.057911	-40.451443	-25.279214	115.630357
1.200000	-24.936291	-19.855241	-0.061800	-42.224899	-0.061800	-42.224899	-24.590610	114.374981
1.250000	-24.271676	-22.109308	-0.065971	-44.000395	-0.065971	-44.000395	-23.928950	113.065429
1.300000	-23.631523	-24.318430	-0.070452	-45.778006	-0.070452	-45.778006	-23.292106	111.706895
1.350000	-23.014669	-26.488304	-0.075264	-47.557734	-0.075264	-47.557734	-22.678804	110.305196
1.400000	-22.419710	-28.623287	-0.080432	-49.339603	-0.080432	-49.339603	-22.087565	108.864729
1.450000	-21.845363	-30.727207	-0.085980	-51.123624	-0.085980	-51.123624	-21.517047	107.389354
1.500000	-21.290457	-32.803437	-0.091931	-52.909799	-0.091931	-52.909799	-20.966036	105.882472
1.550000	-20.753921	-34.854957	-0.098311	-54.698119	-0.098311	-54.698119	-20.433427	104.347094
1.600000	-20.234775	-36.884403	-0.105142	-56.488569	-0.105142	-56.488569	-19.918212	102.785896
1.650000	-19.732118	-38.894117	-0.112449	-58.281122	-0.112449	-58.281122	-19.419471	101.201263
1.700000	-19.244966	-40.885967	-0.120262	-60.075771	-0.120262	-60.075771	-18.936208	99.595074
1.750000	-18.772790	-42.862129	-0.128596	-61.872435	-0.128596	-61.872435	-18.467871	97.969642
1.800000	-18.314828	-44.824172	-0.137476	-63.671070	-0.137476	-63.671070	-18.013693	96.326603
1.850000	-17.870433	-46.773569	-0.146924	-65.471618	-0.146924	-65.471618	-17.573016	94.667530
1.900000	-17.438959	-48.711584	-0.156965	-67.274019	-0.156965	-67.274019	-17.145189	92.993784
1.950000	-17.019863	-50.639414	-0.167621	-69.078195	-0.167621	-69.078195	-16.729663	91.306695
2.000000	-16.612679	-52.558174	-0.178912	-70.884053	-0.178912	-70.884053	-16.325966	89.607543
2.050000	-16.216926	-54.468808	-0.190856	-72.691500	-0.190856	-72.691500	-15.933613	87.897435
2.100000	-15.832161	-56.372160	-0.203474	-74.500438	-0.203474	-74.500438	-15.552159	86.177400
2.150000	-15.457969	-58.268988	-0.216786	-76.310758	-0.216786	-76.310758	-15.181185	84.448390
2.200000	-15.093950	-60.159954	-0.230811	-78.122351	-0.230811	-78.122351	-14.820289	82.711278
2.250000	-14.739722	-62.045643	-0.245573	-79.935099	-0.245573	-79.935099	-14.469090	80.966874
2.300000	-14.394991	-63.926638	-0.261082	-81.748864	-0.261082	-81.748864	-14.127290	79.216029
2.350000	-14.059440	-65.803417	-0.277355	-83.563511	-0.277355	-83.563511	-13.794572	77.459487
2.400000	-13.732772	-67.676404	-0.294408	-85.378896	-0.294408	-85.378896	-13.470638	75.697953
2.450000	-13.414707	-69.545974	-0.312255	-87.194873	-0.312255	-87.194873	-13.155207	73.932100
2.500000	-13.104981	-71.412455	-0.330909	-89.011287	-0.330909	-89.011287	-12.848016	72.162569
2.550000	-12.803322	-73.276107	-0.350393	-90.827977	-0.350393	-90.827977	-12.548794	70.389950
2.600000	-12.509527	-75.137214	-0.370708	-92.644772	-0.370708	-92.644772	-12.257335	68.614873
2.650000	-12.223374	-76.995990	-0.391865	-94.461500	-0.391865	-94.461500	-11.973419	66.837908
2.700000	-11.944651	-78.852619	-0.413874	-96.277983	-0.413874	-96.277983	-11.696835	65.059604
2.750000	-11.673160	-80.707256	-0.436742	-98.094040	-0.436742	-98.094040	-11.427384	63.280496
2.800000	-11.408708	-82.560029	-0.460475	-99.909482	-0.460475	-99.909482	-11.164876	61.501098
2.850000	-11.151109	-84.411031	-0.485085	-101.724111	-0.485085	-101.724111	-10.909123	59.721920
2.900000	-10.900197	-86.260354	-0.510572	-103.537734	-0.510572	-103.537734	-10.659963	57.943454
2.950000	-10.655810	-88.108068	-0.536935	-105.350154	-0.536935	-105.350154	-10.417231	56.166175
3.000000	-10.417787	-89.954218	-0.564176	-107.161172	-0.564176	-107.161172	-10.180770	54.390545
3.050000	-10.185975	-91.798836	-0.592293	-108.970584	-0.592293	-108.970584	-9.950428	52.617017
3.100000	-9.960227	-93.641937	-0.621283	-110.778187	-0.621283	-110.778187	-9.726057	50.846028
3.150000	-9.740403	-95.483519	-0.651147	-112.583763	-0.651147	-112.583763	-9.507520	49.078028
3.200000	-9.526368	-97.323574	-0.681879	-114.387103	-0.681879	-114.387103	-9.294681	47.313441
3.250000	-9.317987	-99.162096	-0.713467	-116.188013	-0.713467	-116.188013	-9.087410	45.552658
3.300000	-9.115132	-100.999063	-0.745902	-117.986290	-0.745902	-117.986290	-8.885577	43.796076
3.350000	-8.917700	-102.834404	-0.779191	-119.781656	-0.779191	-119.781656	-8.689079	42.044201
3.400000	-8.725533	-104.668156	-0.813289	-121.574039	-0.813289	-121.574039	-8.497762	40.297207
3.450000	-8.538526	-106.500250	-0.848196	-123.363188	-0.848196	-123.363188	-8.311523	38.555544
3.500000	-8.356564	-108.330647	-0.883897	-125.148910	-0.883897	-125.148910	-8.130247	36.819565
3.550000	-8.179534	-110.159303	-0.920374	-126.931017	-0.920374	-126.931017	-7.953823	35.089614
3.600000	-8.007324	-111.986178	-0.957609	-128.709326	-0.957609	-128.709326	-7.782140	33.366022
3.650000	-7.839828	-113.811229	-0.995581	-130.483660	-0.995581	-130.483660	-7.615093	31.649109
3.700000	-7.676938	-115.634417	-1.034269	-132.253848	-1.034269	-132.253848	-7.452576	29.939185
3.750000	-7.518551	-117.455703	-1.073649	-134.019725	-1.073649	-134.019725	-7.294488	28.236546
3.800000	-7.364600	-119.275011	-1.113707	-135.781035	-1.113707	-135.781035	-7.140763	26.541650
3.850000	-7.214951	-121.092352	-1.154406	-137.537723	-1.154406	-137.537723	-6.991269	24.854609
3.900000	-7.069507	-122.907700	-1.195719	-139.289650	-1.195719	-139.289650	-6.845909	23.175686
3.950000	-6.928168	-124.721034	-1.237619	-141.036683	-1.237619	-141.036683	-6.704589	21.505130
4.000000	-6.790840	-126.532340	-1.280076	-142.778702	-1.280076	-142.778702	-6.567214	19.843176
4.050000	-6.657429	-128.341610	-1.323062	-144.515594	-1.323062	-144.515594	-6.433692	18.190049
4.100000	-6.527842	-130.148842	-1.366545	-146.247256	-1.366545	-146.247256	-6.303933	16.545963
4.150000	-6.401988	-131.954043	-1.410494	-147.973595	-1.410494	-147.973595	-6.177849	14.911117
4.200000	-6.279778	-133.757225	-1.454879	-149.694529	-1.454879	-149.694529	-6.055351	13.285700
4.250000	-6.161123	-135.558410	-1.499667	-151.409984	-1.499667	-151.409984	-5.936354	11.669887
4.300000	-6.045937	-137.357627	-1.544825	-153.119897	-1.544825	-153.119897	-5.820774	10.063845
4.350000	-5.934134	-139.154913	-1.590320	-154.824216	-1.590320	-154.824216	-5.708527	8.467725
4.400000	-5.825652	-140.950295	-1.636121	-156.522838	-1.636121	-156.522838	-5.599553	6.881780
4.450000	-5.720407	-142.743828	-1.682193	-158.215728	-1.682193	-158.215728	-5.493772	5.306144
4.500000	-5.618298	-144.535596	-1.728501	-159.902926	-1.728501	-159.902926	-5.391084	3.740825
4.550000	-5.519244	-146.325672	-1.775013	-161.584421	-1.775013	-161.584421	-5.291413	2.185931
4.600000	-5.423168	-148.114137	-1.821696	-163.260210	-1.821696	-163.260210	-5.194683	0.641559
4.650000	-5.329992	-149.901079	-1.868517	-164.930299	-1.868517	-164.930299	-5.100819	-0.892205
4.700000	-5.239640	-151.686595	-1.915444	-166.594707	-1.915444	-166.594707	-5.009749	-2.415286
4.750000	-5.152037	-153.470792	-1.962446	-168.253457	-1.962446	-168.253457	-4.921401	-3.927615
4.800000	-5.067112	-155.253784	-2.009489	-169.906583	-2.009489	-169.906583	-4.835706	-5.429137
4.850000	-4.984793	-157.035691	-2.056544	-171.554127	-2.056544	-171.554127	-4.752595	-6.919804
4.900000	-4.905009	-158.816645	-2.103579	-173.196140	-2.103579	-173.196140	-4.672000	-8.399576
4.950000	-4.827692	-160.596781	-2.150565	-174.832680	-2.150565	-174.832680	-4.593857	-9.868422
5.000000	-4.752775	-162.376244	-2.197473	-176.463812	-2.197473	-176.463812	-4.518101	-11.326320
5.050000	-4.680228	-164.155178	-2.244264	-178.089494	-2.244264	-178.089494	-4.444705	-12.773017
5.100000	-4.609949	-165.933757	-2.290920	-179.709923	-2.290920	-179.709923	-4.373571	-14.208744
5.150000	-4.541875	-167.712144	-2.337411	178.674814	-2.337411	178.674814	-4.304639	-15.633500
5.200000	-4.475945	-169.490512	-2.383713	177.064626	-2.383713	177.064626	-4.237850	-17.047294
5.250000	-4.412098	-171.269037	-2.429800	175.459416	-2.429800	175.459416	-4.173147	-18.450138
5.300000	-4.350275	-173.047902	-2.475646	173.859079	-2.475646	173.859079	-4.110473	-19.842052
5.350000	-4.290418	-174.827293	-2.521229	172.263508	-2.521229	172.263508	-4.049775	-21.223061
5.400000	-4.232473	-176.607404	-2.566525	170.672591	-2.566525	170.672591	-3.990998	-22.593195
5.450000	-4.176383	-178.388431	-2.611512	169.086211	-2.611512	169.086211	-3.934091	-23.952491
5.500000	-4.122096	179.829425	-2.656170	167.504246	-2.656170	167.504246	-3.879003	-25.300988
5.550000	-4.069558	178.045960	-2.700477	165.926573	-2.700477	165.926573	-3.825685	-26.638733
5.600000	-4.018720	176.260966	-2.744416	164.353063	-2.744416	164.353063	-3.774087	-27.965773
5.650000	-3.969546	174.474211	-2.787960	162.783627	-2.787960	162.783627	-3.724179	-29.282049
5.700000	-3.921987	172.685474	-2.831092	161.218128	-2.831092	161.218128	-3.675912	-30.587617
5.750000	-3.875981	170.894559	-2.873803	159.656384	-2.873803	159.656384	-3.629228	-31.882656
5.800000	-3.831482	169.101248	-2.916076	158.098258	-2.916076	158.098258	-3.584081	-33.167230
5.850000	-3.788446	167.305322	-2.957898	156.543609	-2.957898	156.543609	-3.540431	-34.441405
5.900000	-3.746828	165.506562	-2.999255	154.992295	-2.999255	154.992295	-3.498236	-35.705251
5.950000	-3.706587	163.704746	-3.040135	153.444173	-3.040135	153.444173	-3.457454	-36.958840
6.000000	-3.667682	161.899655	-3.080526	151.899098	-3.080526	151.899098	-3.418047	-38.202249
6.050000	-3.630071	160.091067	-3.120417	150.356925	-3.120417	150.356925	-3.379976	-39.435552
6.100000	-3.593717	158.278762	-3.159798	148.817507	-3.159798	148.817507	-3.343204	-40.658831
6.150000	-3.558580	156.462523	-3.198662	147.280700	-3.198662	147.280700	-3.307695	-41.872166
6.200000	-3.524625	154.642130	-3.237000	145.746355	-3.237000	145.746355	-3.273411	-43.075640
6.250000	-3.491814	152.817368	-3.274804	144.214327	-3.274804	144.214327	-3.240320	-44.269337
6.300000	-3.460134	150.987918	-3.312055	142.684514	-3.312055	142.684514	-3.208409	-45.453134
6.350000	-3.429529	149.153665	-3.348761	141.156718	-3.348761	141.156718	-3.177622	-46.627333
6.400000	-3.399965	147.314399	-3.384919	139.630797	-3.384919	139.630797	-3.147926	-47.792021
6.450000	-3.371410	145.469916	-3.420526	138.106604	-3.420526	138.106604	-3.119291	-48.947288
6.500000	-3.343832	143.620016	-3.455578	136.583999	-3.455578	136.583999	-3.091685	-50.093226
6.550000	-3.317200	141.764501	-3.490075	135.062838	-3.490075	135.062838	-3.065079	-51.229927
6.600000	-3.291485	139.903179	-3.524015	133.542982	-3.524015	133.542982	-3.039443	-52.357483
6.650000	-3.266658	138.035863	-3.557399	132.024292	-3.557399	132.024292	-3.014749	-53.475989
6.700000	-3.242690	136.162371	-3.590227	130.506632	-3.590227	130.506632	-2.990970	-54.585539
6.750000	-3.219553	134.282527	-3.622502	128.989867	-3.622502	128.989867	-2.968077	-55.686230
6.800000	-3.197221	132.396161	-3.654225	127.473865	-3.654225	127.473865	-2.946044	-56.778157
6.850000	-3.175667	130.503111	-3.685400	125.958496	-3.685400	125.958496	-2.924846	-57.861418
6.900000	-3.154874	128.603144	-3.716024	124.443637	-3.716024	124.443637	-2.904464	-58.936018
6.950000	-3.134814	126.696106	-3.746102	122.929158	-3.746102	122.929158	-2.884873	-60.002059
7.000000	-3.115457	124.781934	-3.775646	121.414932	-3.775646	121.414932	-2.866042	-61.059734
7.050000	-3.096779	122.860493	-3.804663	119.900842	-3.804663	119.900842	-2.847945	-62.109142
7.100000	-3.078756	120.931662	-3.833160	118.386772	-3.833160	118.386772	-2.830560	-63.150384
7.150000	-3.061367	118.995327	-3.861144	116.872609	-3.861144	116.872609	-2.813864	-64.183561
7.200000	-3.044588	117.051382	-3.888624	115.358246	-3.888624	115.358246	-2.797835	-65.208776
7.250000	-3.028399	115.099735	-3.915608	113.843579	-3.915608	113.843579	-2.782451	-66.226130
7.300000	-3.012780	113.140300	-3.942107	112.328506	-3.942107	112.328506	-2.767691	-67.235728
7.350000	-2.997708	111.173004	-3.968129	110.812932	-3.968129	110.812932	-2.753534	-68.237672
7.400000	-2.983166	109.197784	-3.993687	109.296764	-3.993687	109.296764	-2.739959	-69.232068
7.450000	-2.969133	107.214590	-4.018790	107.779914	-4.018790	107.779914	-2.726947	-70.219021
7.500000	-2.955591	105.223382	-4.043451	106.262299	-4.043451	106.262299	-2.714478	-71.198638
7.550000	-2.942531	103.223956	-4.067672	104.743820	-4.067672	104.743820	-2.702544	-72.170871
7.600000	-2.929925	101.216474	-4.091476	103.224420	-4.091476	103.224420	-2.691114	-73.135988
7.650000	-2.917757	99.200933	-4.114877	101.704032	-4.114877	101.704032	-2.680171	-74.094098
7.700000	-2.906009	97.177345	-4.137889	100.182591	-4.137889	100.182591	-2.669696	-75.045310
7.750000	-2.894666	95.145734	-4.160524	98.660041	-4.160524	98.660041	-2.659671	-75.989736
7.800000	-2.883712	93.106138	-4.182798	97.136328	-4.182798	97.136328	-2.650081	-76.927487
7.850000	-2.873133	91.058607	-4.204724	95.611406	-4.204724	95.611406	-2.640907	-77.858677
7.900000	-2.862914	89.003207	-4.226319	94.085232	-4.226319	94.085232	-2.632135	-78.783420
7.950000	-2.853042	86.940017	-4.247597	92.557773	-4.247597	92.557773	-2.623747	-79.701831
8.000000	-2.843503	84.869130	-4.268572	91.028998	-4.268572	91.028998	-2.615729	-80.614026
8.050000	-2.834286	82.790651	-4.289261	89.498883	-4.289261	89.498883	-2.608065	-81.520124
8.100000	-2.825377	80.704702	-4.309680	87.967411	-4.309680	87.967411	-2.600741	-82.420243
8.150000	-2.816770	78.611340	-4.329839	86.434556	-4.329839	86.434556	-2.593745	-83.314442
8.200000	-2.808453	76.510719	-4.349756	84.900311	-4.349756	84.900311	-2.587064	-84.202846
8.250000	-2.800414	74.403082	-4.369450	83.364695	-4.369450	83.364695	-2.580680	-85.085643
8.300000	-2.792644	72.288607	-4.388934	81.827713	-4.388934	81.827713	-2.574581	-85.962958
8.350000	-2.785134	70.167486	-4.408226	80.289380	-4.408226	80.289380	-2.568753	-86.834917
8.400000	-2.777877	68.039922	-4.427339	78.749717	-4.427339	78.749717	-2.563186	-87.701648
8.450000	-2.770867	65.906135	-4.446289	77.208749	-4.446289	77.208749	-2.557866	-88.563280
8.500000	-2.764097	63.766355	-4.465090	75.666509	-4.465090	75.666509	-2.552783	-89.419945
8.550000	-2.757563	61.620825	-4.483755	74.123037	-4.483755	74.123037	-2.547926	-90.271775
8.600000	-2.751261	59.469803	-4.502299	72.578376	-4.502299	72.578376	-2.543286	-91.118906
8.650000	-2.745186	57.313555	-4.520734	71.032578	-4.520734	71.032578	-2.538851	-91.961473
8.700000	-2.739338	55.152361	-4.539073	69.485700	-4.539073	69.485700	-2.534614	-92.799615
8.750000	-2.733715	52.986511	-4.557327	67.937804	-4.557327	67.937804	-2.530566	-93.633471
8.800000	-2.728320	50.816220	-4.575507	66.388939	-4.575507	66.388939	-2.526702	-94.463096
8.850000	-2.723150	48.641899	-4.593624	64.839201	-4.593624	64.839201	-2.523011	-95.288726
8.900000	-2.718207	46.463871	-4.611688	63.288668	-4.611688	63.288668	-2.519486	-96.110507
8.950000	-2.713492	44.282464	-4.629709	61.737426	-4.629709	61.737426	-2.516122	-96.928586
9.000000	-2.709009	42.098017	-4.647693	60.185561	-4.647693	60.185561	-2.512912	-97.743110
9.050000	-2.704762	39.910875	-4.665648	58.633168	-4.665648	58.633168	-2.509852	-98.554231
9.100000	-2.700758	37.721391	-4.683579	57.080342	-4.683579	57.080342	-2.506939	-99.362099
9.150000	-2.697002	35.529922	-4.701491	55.527184	-4.701491	55.527184	-2.504169	-100.166868
9.200000	-2.693502	33.336832	-4.719387	53.973798	-4.719387	53.973798	-2.501539	-100.968692
9.250000	-2.690266	31.142490	-4.737270	52.420290	-4.737270	52.420290	-2.499049	-101.767728
9.300000	-2.687303	28.947269	-4.755139	50.866770	-4.755139	50.866770	-2.496698	-102.564132
9.350000	-2.684625	26.751543	-4.772996	49.313349	-4.772996	49.313349	-2.494485	-103.358063
9.400000	-2.682244	24.555695	-4.790836	47.760143	-4.790836	47.760143	-2.492413	-104.149656
9.450000	-2.680175	22.360117	-4.808658	46.207270	-4.808658	46.207270	-2.490486	-104.939077
9.500000	-2.678426	20.165191	-4.826457	44.654842	-4.826457	44.654842	-2.488704	-105.726512
9.550000	-2.677013	17.971300	-4.844225	43.102974	-4.844225	43.102974	-2.487071	-106.512121
9.600000	-2.675949	15.778824	-4.861956	41.551780	-4.861956	41.551780	-2.485594	-107.296065
9.650000	-2.675250	13.588142	-4.879640	40.001371	-4.879640	40.001371	-2.484278	-108.078506
9.700000	-2.674933	11.399634	-4.897266	38.451861	-4.897266	38.451861	-2.483131	-108.859602
9.750000	-2.675015	9.213675	-4.914820	36.903356	-4.914820	36.903356	-2.482162	-109.639515
9.800000	-2.675514	7.030637	-4.932289	35.355963	-4.932289	35.355963	-2.481381	-110.418402
9.850000	-2.676447	4.850890	-4.949655	33.809783	-4.949655	33.809783	-2.480799	-111.196420
9.900000	-2.677835	2.674798	-4.966902	32.264915	-4.966902	32.264915	-2.480429	-111.973724
9.950000	-2.679697	0.502723	-4.984009	30.721450	-4.984009	30.721450	-2.480285	-112.750468
10.000000	-2.682053	-1.664981	-5.000954	29.179476	-5.000954	29.179476	-2.480382	-113.526800
