! freq	dB(S11)	phase(S11)	dB(S12)	phase(S12)	
!     	dB(S21)	phase(S21)	dB(S22)	phase(S22)	
!S-par simulation data
#  GHz  S  DB  R 50
0.000000	-80.709284	0.000000	-0.000694	0.000000	-0.000694	0.000000	-80.709357	0.000000
0.050000	-24.354061	-98.061066	-0.029780	-7.831381	-0.029780	-7.831381	-24.354077	-98.061229
0.100000	-18.491904	-105.962247	-0.084870	-15.538688	-0.084870	-15.538688	-18.491934	-105.962476
0.150000	-15.189745	-113.570819	-0.167085	-23.124209	-0.167085	-23.124209	-15.189750	-113.571420
0.200000	-12.963488	-120.980930	-0.269988	-30.544666	-0.269988	-30.544666	-12.963455	-120.982075
0.250000	-11.347412	-128.215991	-0.385627	-37.782319	-0.385627	-37.782319	-11.347346	-128.217562
0.300000	-10.131933	-135.273334	-0.506846	-44.834558	-0.506846	-44.834558	-10.131853	-135.275102
0.350000	-9.205455	-142.147289	-0.627201	-51.704310	-0.627201	-51.704310	-9.205384	-142.149075
0.400000	-8.495763	-148.847332	-0.741012	-58.407406	-0.741012	-58.407406	-8.495718	-148.849055
0.450000	-7.959822	-155.386633	-0.843069	-64.960130	-0.843069	-64.960130	-7.959807	-155.388267
0.500000	-7.567774	-161.788069	-0.928928	-71.386311	-0.928928	-71.386311	-7.567785	-161.789599
0.550000	-7.299542	-168.080083	-0.995031	-77.714451	-0.995031	-77.714451	-7.299569	-168.081480
0.600000	-7.142666	-174.294354	-1.038672	-83.976265	-1.038672	-83.976265	-7.142697	-174.295563
0.650000	-7.090339	179.534962	-1.058133	-90.206329	-1.058133	-90.206329	-7.090366	179.534029
0.700000	-7.139312	173.372970	-1.053093	-96.440423	-1.053093	-96.440423	-7.139326	173.372437
0.750000	-7.292084	167.186241	-1.024020	-102.713810	-1.024020	-102.713810	-7.292079	167.186278
0.800000	-7.556134	160.943258	-0.972408	-109.060966	-0.972408	-109.060966	-7.556106	160.944097
0.850000	-7.944692	154.615929	-0.900796	-115.514555	-0.900796	-115.514555	-7.944638	154.617891
0.900000	-8.478240	148.181732	-0.812782	-122.104177	-0.812782	-122.104177	-8.478156	148.185271
0.950000	-9.187192	141.626942	-0.713011	-128.854811	-0.713011	-128.854811	-9.187072	141.632716
1.000000	-10.116769	134.951844	-0.607103	-135.784940	-0.607103	-135.784940	-10.116602	134.960848
1.050000	-11.339423	128.179586	-0.501603	-142.907736	-0.501603	-142.907736	-11.339186	128.193456
1.100000	-12.964560	121.382128	-0.403472	-150.216722	-0.403472	-150.216722	-12.964204	121.403653
1.150000	-15.202877	114.731110	-0.319799	-157.701198	-0.319799	-157.701198	-15.202275	114.765887
1.200000	-18.508847	108.738449	-0.257176	-165.333983	-0.257176	-165.333983	-18.507575	108.800452
1.250000	-24.269706	105.674492	-0.220463	-173.074535	-0.220463	-173.074535	-24.265139	105.814818
1.300000	-37.797136	177.637134	-0.214010	179.123917	-0.214010	179.123917	-37.701895	177.543022
1.350000	-24.506928	-109.360576	-0.238271	171.317447	-0.238271	171.317447	-24.502807	-109.560619
1.400000	-18.635996	-111.878762	-0.291880	163.559648	-0.291880	163.559648	-18.635118	-111.991257
1.450000	-15.292052	-117.832391	-0.371151	155.897458	-0.371151	155.897458	-15.291724	-117.916822
1.500000	-13.037977	-124.480594	-0.470979	148.371966	-0.470979	148.371966	-13.037824	-124.551655
1.550000	-11.407725	-131.286192	-0.584457	141.010068	-0.584457	141.010068	-11.407646	-131.349705
1.600000	-10.188086	-138.071340	-0.704110	133.823004	-0.704110	133.823004	-10.188044	-138.130213
1.650000	-9.264150	-144.766709	-0.822682	126.810294	-0.822682	126.810294	-9.264128	-144.822635
1.700000	-8.566449	-151.348482	-0.933418	119.960116	-0.933418	119.960116	-8.566440	-151.402546
1.750000	-8.050385	-157.817260	-1.030385	113.251293	-1.030385	113.251293	-8.050386	-157.870210
1.800000	-7.689916	-164.186369	-1.108052	106.657332	-1.108052	106.657332	-7.689927	-164.238766
1.850000	-7.459812	-170.484710	-1.163764	100.139217	-1.163764	100.139217	-7.459831	-170.536971
1.900000	-7.353799	-176.739775	-1.194112	93.661637	-1.194112	93.661637	-7.353827	-176.792259
1.950000	-7.368050	177.014752	-1.197644	87.183031	-1.197644	87.183031	-7.368087	176.961728
2.000000	-7.501009	170.745839	-1.175094	80.662516	-1.175094	80.662516	-7.501056	170.691980
2.050000	-7.769515	164.418486	-1.126057	74.052960	-1.126057	74.052960	-7.769573	164.363470
2.100000	-8.186216	158.007010	-1.054165	67.315113	-1.054165	67.315113	-8.186284	157.950488
2.150000	-8.782175	151.492212	-0.963069	60.407089	-0.963069	60.407089	-8.782255	151.433747
2.200000	-9.602650	144.874693	-0.858448	53.293047	-0.858448	53.293047	-9.602745	144.813700
2.250000	-10.715485	138.191312	-0.747552	45.949215	-0.747552	45.949215	-10.715603	138.126938
2.300000	-12.244525	131.554309	-0.638958	38.352144	-0.638958	38.352144	-12.244688	131.485094
2.350000	-14.397881	125.258218	-0.542172	30.509420	-0.542172	30.509420	-14.398153	125.181431
2.400000	-17.645438	120.216605	-0.467107	22.436286	-0.467107	22.436286	-17.646078	120.125608
2.450000	-23.358239	121.074571	-0.422897	14.173368	-0.422897	14.173368	-23.361179	120.944974
2.500000	-33.601393	-166.020292	-0.415902	5.781960	-0.415902	5.781960	-33.640283	-166.052601
2.550000	-22.460537	-109.537206	-0.451161	-2.665675	-0.451161	-2.665675	-22.464414	-109.525591
2.600000	-16.960950	-109.983735	-0.527184	-11.087860	-0.527184	-11.087860	-16.962324	-110.004851
2.650000	-13.716281	-115.460703	-0.640284	-19.408612	-0.640284	-19.408612	-13.717088	-115.495512
2.700000	-11.515811	-122.101522	-0.782410	-27.564735	-0.782410	-27.564735	-11.516403	-122.144627
2.750000	-9.929489	-129.069481	-0.942882	-35.517703	-0.942882	-35.517703	-9.929981	-129.118798
2.800000	-8.762796	-136.074925	-1.109976	-43.242465	-1.109976	-43.242465	-8.763242	-136.129544
2.850000	-7.898638	-143.001312	-1.271520	-50.751394	-1.271520	-50.751394	-7.899069	-143.060926
2.900000	-7.273046	-149.810408	-1.415963	-58.068130	-1.415963	-58.068130	-7.273485	-149.875059
2.950000	-6.844904	-156.507545	-1.532881	-65.239388	-1.532881	-65.239388	-6.845368	-156.577562
3.000000	-6.588592	-163.125562	-1.614137	-72.328927	-1.614137	-72.328927	-6.589104	-163.201549
3.050000	-6.500767	-169.712772	-1.651449	-79.415112	-1.651449	-79.415112	-6.501353	-169.795717
3.100000	-6.583003	-176.330492	-1.641343	-86.592624	-1.641343	-86.592624	-6.583700	-176.421849
3.150000	-6.862753	176.956965	-1.580955	-93.974782	-1.580955	-93.974782	-6.863625	176.854935
3.200000	-7.392072	170.096120	-1.471902	-101.695431	-1.471902	-101.695431	-7.393232	169.979783
3.250000	-8.262551	163.085948	-1.321901	-109.898092	-1.321901	-109.898092	-8.264230	162.949207
3.300000	-9.665335	156.085136	-1.145402	-118.763526	-1.145402	-118.763526	-9.668097	155.916057
3.350000	-11.984216	149.854081	-0.970268	-128.454952	-0.970268	-128.454952	-11.989842	149.625578
3.400000	-16.198031	148.086311	-0.838940	-139.092885	-0.838940	-139.092885	-16.215705	147.718730
3.450000	-24.294569	-174.350414	-0.808996	-150.696975	-0.808996	-150.696975	-24.428084	-174.729921
3.500000	-17.533026	-101.571395	-0.945163	-163.097762	-0.945163	-163.097762	-17.564067	-101.193273
3.550000	-11.219355	-100.740161	-1.302327	-175.896567	-1.302327	-175.896567	-11.227050	-100.555348
3.600000	-7.633194	-108.925619	-1.896306	171.470528	-1.896306	171.470528	-7.636567	-108.816702
3.650000	-5.362843	-118.670593	-2.701092	159.539232	-2.701092	159.539232	-5.364746	-118.600431
3.700000	-3.866781	-128.240424	-3.660339	148.666144	-3.660339	148.666144	-3.868018	-128.193760
3.750000	-2.861731	-137.054335	-4.710028	138.984135	-4.710028	138.984135	-2.862612	-137.023520
3.800000	-2.180108	-144.938534	-5.791700	130.482615	-5.791700	130.482615	-2.180780	-144.919136
3.850000	-1.702558	-151.975055	-6.872889	122.977908	-6.872889	122.977908	-1.703096	-151.964443
3.900000	-1.365376	-158.236716	-7.924361	116.352380	-7.924361	116.352380	-1.365823	-158.233066
3.950000	-1.122689	-163.842821	-8.931547	110.455984	-8.931547	110.455984	-1.123071	-163.844862
4.000000	-0.943008	-168.921184	-9.892782	105.139870	-9.892782	105.139870	-0.943343	-168.928024
4.050000	-0.810928	-173.523333	-10.790499	100.343620	-10.790499	100.343620	-0.811226	-173.534246
4.100000	-0.708618	-177.781126	-11.643866	95.921569	-11.643866	95.921569	-0.708888	-177.795624
4.150000	-0.630091	178.274737	-12.441844	91.839387	-12.441844	91.839387	-0.630338	178.257073
4.200000	-0.568800	174.589308	-13.187260	88.036833	-13.187260	88.036833	-0.569028	174.568811
4.250000	-0.519673	171.106501	-13.889881	84.452847	-13.889881	84.452847	-0.519886	171.083421
4.300000	-0.481189	167.821575	-14.536154	81.081795	-14.536154	81.081795	-0.481388	167.796152
4.350000	-0.449692	164.679368	-15.143499	77.863842	-15.143499	77.863842	-0.449881	164.651771
4.400000	-0.424218	161.670337	-15.706265	74.788232	-15.706265	74.788232	-0.424397	161.640722
4.450000	-0.403460	158.774091	-16.226971	71.832497	-16.226971	71.832497	-0.403630	158.742589
4.500000	-0.386254	155.968034	-16.712218	68.972006	-16.712218	68.972006	-0.386417	155.934751
4.550000	-0.372594	153.257606	-17.148951	66.211504	-17.148951	66.211504	-0.372751	153.222654
4.600000	-0.361190	150.610892	-17.554013	63.516646	-17.554013	63.516646	-0.361341	150.574346
4.650000	-0.351738	148.020507	-17.927358	60.879088	-17.927358	60.879088	-0.351884	147.982436
4.700000	-0.343980	145.479638	-18.269163	58.291108	-18.269163	58.291108	-0.344121	145.440104
4.750000	-0.337691	142.982044	-18.579764	55.745610	-18.579764	55.745610	-0.337829	142.941103
4.800000	-0.333034	140.531441	-18.847664	53.244523	-18.847664	53.244523	-0.333168	140.489157
4.850000	-0.329416	138.109092	-19.087219	50.768747	-19.087219	50.768747	-0.329547	138.065507
4.900000	-0.326744	135.710879	-19.298436	48.313572	-19.298436	48.313572	-0.326872	135.666031
4.950000	-0.324939	133.332895	-19.481440	45.874539	-19.481440	45.874539	-0.325065	133.286821
5.000000	-0.323933	130.971443	-19.636452	43.447434	-19.636452	43.447434	-0.324057	130.924175
5.050000	-0.323895	128.625288	-19.754425	41.028594	-19.754425	41.028594	-0.324017	128.576866
5.100000	-0.324533	126.285909	-19.845675	38.610674	-19.845675	38.610674	-0.324653	126.236358
5.150000	-0.325828	123.950346	-19.910171	36.190380	-19.910171	36.190380	-0.325946	123.899691
5.200000	-0.327765	121.615694	-19.947955	33.764490	-19.947955	33.764490	-0.327882	121.563957
5.250000	-0.330337	119.279103	-19.959142	31.329860	-19.959142	31.329860	-0.330454	119.226305
5.300000	-0.333765	116.934330	-19.934954	28.877454	-19.934954	28.877454	-0.333880	116.880496
5.350000	-0.337856	114.579216	-19.884094	26.407144	-19.884094	26.407144	-0.337969	114.524362
5.400000	-0.342638	112.210900	-19.806423	23.915829	-19.806423	23.915829	-0.342751	112.155040
5.450000	-0.348148	109.826455	-19.701870	21.400340	-19.701870	21.400340	-0.348260	109.769603
5.500000	-0.354427	107.422896	-19.570435	18.857444	-19.570435	18.857444	-0.354537	107.365065
5.550000	-0.361845	104.987501	-19.401431	16.271110	-19.401431	16.271110	-0.361954	104.928701
5.600000	-0.370238	102.523056	-19.203985	13.646554	-19.203985	13.646554	-0.370346	102.463294
5.650000	-0.379710	100.025746	-18.977775	10.979579	-18.977775	10.979579	-0.379817	99.965028
5.700000	-0.390386	97.491513	-18.722560	8.265701	-18.722560	8.265701	-0.390492	97.429840
5.750000	-0.402406	94.916052	-18.438221	5.500140	-18.438221	5.500140	-0.402511	94.853423
5.800000	-0.416582	92.275727	-18.109269	2.654575	-18.109269	2.654575	-0.416686	92.212136
5.850000	-0.432754	89.578065	-17.747498	-0.260843	-17.747498	-0.260843	-0.432858	89.513503
5.900000	-0.451262	86.816163	-17.352262	-3.254028	-17.352262	-3.254028	-0.451366	86.750613
5.950000	-0.472514	83.982376	-16.923066	-6.333791	-16.923066	-6.333791	-0.472618	83.915818
6.000000	-0.496982	81.068320	-16.459673	-9.509843	-16.459673	-9.509843	-0.497087	81.000728
6.050000	-0.526691	78.034018	-15.941836	-12.829592	-15.941836	-12.829592	-0.526799	77.965344
6.100000	-0.561972	74.883278	-15.381346	-16.288261	-15.381346	-16.288261	-0.562086	74.813468
6.150000	-0.604309	71.597544	-14.776009	-19.907985	-14.776009	-19.907985	-0.604431	71.526529
6.200000	-0.655707	68.154284	-14.123430	-23.715886	-14.123430	-23.715886	-0.655839	68.081975
6.250000	-0.718910	64.525881	-13.421036	-27.745529	-13.421036	-27.745529	-0.719058	64.452161
6.300000	-0.800619	60.640821	-12.648129	-32.084101	-12.648129	-32.084101	-0.800792	60.565513
6.350000	-0.903046	56.504653	-11.827690	-36.726919	-11.827690	-36.726919	-0.903252	56.427563
6.400000	-1.038700	52.016550	-10.936830	-41.800322	-10.936830	-41.800322	-1.038953	51.937382
6.450000	-1.221216	47.108040	-9.977581	-47.395803	-9.977581	-47.395803	-1.221538	47.026391
6.500000	-1.470514	41.700949	-8.955485	-53.623891	-8.955485	-53.623891	-1.470937	41.616274
6.550000	-1.828875	35.637589	-7.861047	-60.715364	-7.861047	-60.715364	-1.829451	35.549025
6.600000	-2.348793	28.842285	-6.719998	-68.832362	-6.719998	-68.832362	-2.349609	28.748596
6.650000	-3.136540	21.214291	-5.553342	-78.274645	-5.553342	-78.274645	-3.137761	21.113408
6.700000	-4.361553	12.884657	-4.415518	-89.278797	-4.415518	-89.278797	-4.363519	12.773060
6.750000	-6.341021	4.616904	-3.390372	-102.028202	-3.390372	-102.028202	-6.344619	4.487761
6.800000	-9.639446	-0.470381	-2.594160	-116.363389	-2.594160	-116.363389	-9.647717	-0.630637
6.850000	-14.936332	11.393762	-2.128999	-131.627329	-2.128999	-131.627329	-14.963485	11.214317
6.900000	-16.147474	64.188667	-2.027195	-146.818224	-2.027195	-146.818224	-16.177934	64.268233
6.950000	-11.256569	83.631950	-2.229269	-161.007437	-2.229269	-161.007437	-11.263765	83.697881
7.000000	-8.106693	81.750174	-2.623139	-173.702753	-2.623139	-173.702753	-8.108786	81.777171
7.050000	-6.254727	75.657408	-3.099308	175.175498	-3.099308	175.175498	-6.255276	75.664019
7.100000	-5.096035	68.872067	-3.580681	165.345291	-3.580681	165.345291	-5.095921	68.866825
7.150000	-4.354438	62.188922	-4.021718	156.574527	-4.021718	156.574527	-4.353978	62.176435
7.200000	-3.873030	55.796892	-4.398724	148.595158	-4.398724	148.595158	-3.872357	55.779812
7.250000	-3.559971	49.680656	-4.704462	141.166869	-4.704462	141.166869	-3.559148	49.660630
7.300000	-3.373882	43.796111	-4.929933	134.141178	-4.929933	134.141178	-3.372941	43.774365
7.350000	-3.278019	38.058393	-5.081523	127.350229	-5.081523	127.350229	-3.276975	38.035781
7.400000	-3.259482	32.406066	-5.158728	120.686049	-5.158728	120.686049	-3.258338	32.383302
7.450000	-3.310516	26.777800	-5.164749	114.047009	-5.164749	114.047009	-3.309270	26.755491
7.500000	-3.427666	21.121494	-5.105520	107.346135	-5.105520	107.346135	-3.426310	21.100172
7.550000	-3.620584	15.386673	-4.980616	100.489780	-4.980616	100.489780	-3.619103	15.366884
7.600000	-3.895343	9.542334	-4.799232	93.405932	-4.799232	93.405932	-3.893714	9.524590
7.650000	-4.273290	3.562709	-4.565233	86.001199	-4.565233	86.001199	-4.271478	3.547579
7.700000	-4.783705	-2.547426	-4.286691	78.184649	-4.286691	78.184649	-4.781659	-2.559300
7.750000	-5.465406	-8.728692	-3.975987	69.881260	-3.975987	69.881260	-5.463047	-8.736568
7.800000	-6.395398	-14.803711	-3.646205	60.959005	-3.646205	60.959005	-6.392586	-14.806574
7.850000	-7.660900	-20.362372	-3.320082	51.379058	-3.320082	51.379058	-7.657386	-20.358967
7.900000	-9.414233	-24.347349	-3.024781	41.066597	-3.024781	41.066597	-9.409482	-24.336098
7.950000	-11.826923	-24.051836	-2.794293	30.024877	-2.794293	30.024877	-11.819659	-24.032495
8.000000	-14.763416	-13.182310	-2.661184	18.360948	-2.661184	18.360948	-14.751008	-13.167715
8.050000	-15.851983	15.077440	-2.664390	6.229262	-2.664390	6.229262	-15.837336	15.039705
8.100000	-13.335899	36.884436	-2.818612	-6.077808	-2.818612	-6.077808	-13.327422	36.823583
8.150000	-10.335798	41.671584	-3.127761	-18.258032	-3.127761	-18.258032	-10.330833	41.621805
8.200000	-8.057306	38.552839	-3.574769	-30.033519	-3.574769	-30.033519	-8.053629	38.514994
8.250000	-6.417222	32.440109	-4.129640	-41.223197	-4.129640	-41.223197	-6.414044	32.411603
8.300000	-5.243465	25.206908	-4.760545	-51.713066	-4.760545	-51.713066	-5.240476	25.185841
8.350000	-4.397667	17.679111	-5.435142	-61.492841	-5.435142	-61.492841	-4.394730	17.664306
8.400000	-3.776374	10.188804	-6.130631	-70.637089	-6.130631	-70.637089	-3.773422	10.179521
8.450000	-3.318586	2.864021	-6.829996	-79.200577	-6.829996	-79.200577	-3.315581	2.859718
8.500000	-2.979558	-4.251297	-7.521407	-87.256903	-7.521407	-87.256903	-2.976480	-4.251035
8.550000	-2.731290	-11.144313	-8.192861	-94.855488	-8.192861	-94.855488	-2.728127	-11.139853
8.600000	-2.546048	-17.848216	-8.844535	-102.091235	-8.844535	-102.091235	-2.542798	-17.839866
8.650000	-2.408400	-24.387594	-9.474426	-109.018233	-9.474426	-109.018233	-2.405068	-24.375648
8.700000	-2.307044	-30.787256	-10.081790	-115.682011	-10.081790	-115.682011	-2.303635	-30.772007
8.750000	-2.233579	-37.070062	-10.666720	-122.120334	-10.666720	-122.120334	-2.230104	-37.051805
8.800000	-2.182652	-43.251185	-11.226414	-128.353921	-11.226414	-128.353921	-2.179125	-43.230247
8.850000	-2.147953	-49.354116	-11.765737	-134.421082	-11.765737	-134.421082	-2.144390	-49.330817
8.900000	-2.125875	-55.392014	-12.285669	-140.341504	-12.285669	-140.341504	-2.122292	-55.366691
8.950000	-2.113548	-61.375351	-12.787218	-146.131263	-12.787218	-146.131263	-2.109961	-61.348358
9.000000	-2.108654	-67.312207	-13.271366	-151.803502	-13.271366	-151.803502	-2.105082	-67.283916
9.050000	-2.109532	-73.206315	-13.736597	-157.362998	-13.736597	-157.362998	-2.105992	-73.177140
9.100000	-2.114211	-79.064334	-14.186540	-162.825677	-14.186540	-162.825677	-2.110717	-79.034684
9.150000	-2.121431	-84.888496	-14.621889	-168.198731	-14.621889	-168.198731	-2.117998	-84.858796
9.200000	-2.130133	-90.679751	-15.043255	-173.488298	-15.043255	-173.488298	-2.126772	-90.650438
9.250000	-2.139420	-96.437959	-15.451173	-178.699708	-15.451173	-178.699708	-2.136141	-96.409482
9.300000	-2.148481	-102.159799	-15.844269	176.166595	-15.844269	176.166595	-2.145291	-102.132641
9.350000	-2.156674	-107.845384	-16.224996	171.101530	-16.224996	171.101530	-2.153579	-107.820005
9.400000	-2.163502	-113.492232	-16.593674	166.101216	-16.593674	166.101216	-2.160506	-113.469085
9.450000	-2.168564	-119.097448	-16.950583	161.161980	-16.950583	161.161980	-2.165668	-119.076980
9.500000	-2.171548	-124.657853	-17.295979	156.280294	-17.295979	156.280294	-2.168753	-124.640495
9.550000	-2.172066	-130.166815	-17.628657	151.455853	-17.628657	151.455853	-2.169371	-130.153002
9.600000	-2.170104	-135.623682	-17.950444	146.681692	-17.950444	146.681692	-2.167508	-135.613794
9.650000	-2.165584	-141.025056	-18.261554	141.954494	-18.261554	141.954494	-2.163087	-141.019440
9.700000	-2.158488	-146.367649	-18.562209	137.270970	-18.562209	137.270970	-2.156089	-146.366610
9.750000	-2.148846	-151.648339	-18.852646	132.627863	-18.852646	132.627863	-2.146545	-151.652142
9.800000	-2.136587	-156.859979	-19.131988	128.024031	-19.131988	128.024031	-2.134388	-156.868847
9.850000	-2.121995	-162.003852	-19.401784	123.453762	-19.401784	123.453762	-2.119899	-162.017941
9.900000	-2.105221	-167.077680	-19.662338	118.913942	-19.662338	118.913942	-2.103233	-167.097089
9.950000	-2.086439	-172.079491	-19.913987	114.401535	-19.913987	114.401535	-2.084566	-172.104264
10.000000	-2.065843	-177.007630	-20.157100	109.913597	-20.157100	109.913597	-2.064092	-177.037752
