! freq	dB(S11)	phase(S11)	dB(S12)	phase(S12)	
!     	dB(S21)	phase(S21)	dB(S22)	phase(S22)	
!S-par simulation data
#  GHz  S  DB  R 50
0.000000	-85.912778	0.000000	-0.000440	0.000000	-0.000440	0.000000	-85.912778	0.000000
0.050000	-48.417000	-91.744951	-0.006040	-2.267335	-0.006040	-2.267335	-48.416999	-91.745626
0.100000	-42.395622	-94.594603	-0.013232	-4.481535	-0.013232	-4.481535	-42.395622	-94.595960
0.150000	-38.879033	-97.116006	-0.017612	-6.679095	-0.017612	-6.679095	-38.879034	-97.118057
0.200000	-36.397477	-99.506584	-0.020433	-8.875834	-0.020433	-8.875834	-36.397479	-99.509340
0.250000	-34.491698	-101.823584	-0.022643	-11.074273	-0.022643	-11.074273	-34.491700	-101.827056
0.300000	-32.956871	-104.097969	-0.024667	-13.274238	-0.024667	-13.274238	-32.956873	-104.102170
0.350000	-31.683222	-106.348538	-0.026689	-15.475262	-0.026689	-15.475262	-31.683223	-106.353484
0.400000	-30.604899	-108.586528	-0.028787	-17.676970	-0.028787	-17.676970	-30.604899	-108.592236
0.450000	-29.679683	-110.818454	-0.030995	-19.879108	-0.030995	-19.879108	-29.679682	-110.824947
0.500000	-28.878361	-113.048105	-0.033321	-22.081510	-0.033321	-22.081510	-28.878358	-113.055409
0.550000	-28.180152	-115.277562	-0.035758	-24.284087	-0.035758	-24.284087	-28.180149	-115.285708
0.600000	-27.570021	-117.507988	-0.038294	-26.486809	-0.038294	-26.486809	-27.570016	-117.517012
0.650000	-27.036751	-119.740049	-0.040912	-28.689687	-0.040912	-28.689687	-27.036744	-119.749991
0.700000	-26.571851	-121.974151	-0.043592	-30.892773	-0.043592	-30.892773	-26.571843	-121.985058
0.750000	-26.168845	-124.210572	-0.046312	-33.096151	-0.046312	-33.096151	-26.168835	-124.222499
0.800000	-25.822791	-126.449547	-0.049051	-35.299938	-0.049051	-35.299938	-25.822779	-126.462556
0.850000	-25.530163	-128.691332	-0.051786	-37.504285	-0.051786	-37.504285	-25.530148	-128.705494
0.900000	-25.288441	-130.936223	-0.054495	-39.709374	-0.054495	-39.709374	-25.288424	-130.951622
0.950000	-25.095327	-133.184531	-0.057156	-41.915403	-0.057156	-41.915403	-25.095306	-133.201263
1.000000	-24.949666	-135.436671	-0.059751	-44.122603	-0.059751	-44.122603	-24.949641	-135.454845
1.050000	-24.850989	-137.693150	-0.062261	-46.331228	-0.062261	-46.331228	-24.850959	-137.712897
1.100000	-24.799498	-139.954590	-0.064670	-48.541560	-0.064670	-48.541560	-24.799464	-139.976061
1.150000	-24.796080	-142.221750	-0.066967	-50.753902	-0.066967	-50.753902	-24.796039	-142.245126
1.200000	-24.842356	-144.495561	-0.069141	-52.968580	-0.069141	-52.968580	-24.842308	-144.521056
1.250000	-24.940774	-146.777164	-0.071187	-55.185940	-0.071187	-55.185940	-24.940718	-146.805036
1.300000	-25.095570	-149.068144	-0.073098	-57.406399	-0.073098	-57.406399	-25.095503	-149.098713
1.350000	-25.310621	-151.370206	-0.074879	-59.630302	-0.074879	-59.630302	-25.310540	-151.403861
1.400000	-25.592054	-153.685691	-0.076537	-61.858050	-0.076537	-61.858050	-25.591956	-153.722922
1.450000	-25.947967	-156.017696	-0.078082	-64.090056	-0.078082	-64.090056	-25.947847	-156.059125
1.500000	-26.389126	-158.370428	-0.079531	-66.326745	-0.079531	-66.326745	-26.388978	-158.416866
1.550000	-26.930046	-160.749812	-0.080905	-68.568552	-0.080905	-68.568552	-26.929859	-160.802340
1.600000	-27.590706	-163.164543	-0.082231	-70.815916	-0.082231	-70.815916	-27.590466	-163.224645
1.650000	-28.399438	-165.628028	-0.083543	-73.069279	-0.083543	-73.069279	-28.399120	-165.697824
1.700000	-29.399531	-168.163739	-0.084881	-75.329181	-0.084881	-75.329181	-29.399092	-168.246466
1.750000	-30.654534	-170.810444	-0.086291	-77.595945	-0.086291	-77.595945	-30.653897	-170.911203
1.800000	-32.274438	-173.647767	-0.087826	-79.870034	-0.087826	-79.870034	-32.273436	-173.775492
1.850000	-34.464569	-176.859528	-0.089545	-82.151872	-0.089545	-82.151872	-34.462781	-177.031974
1.900000	-37.685058	178.996253	-0.091514	-84.441913	-0.091514	-84.441913	-37.681027	178.734857
1.950000	-43.364268	171.076306	-0.093809	-86.740554	-0.093809	-86.740554	-43.348212	170.553840
2.000000	-55.838127	84.965362	-0.096507	-89.048118	-0.096507	-89.048118	-55.548393	85.189238
2.050000	-42.511736	8.385866	-0.099695	-91.364946	-0.099695	-91.364946	-42.496782	8.906469
2.100000	-36.409698	0.672450	-0.103465	-93.691346	-0.103465	-93.691346	-36.405863	0.942211
2.150000	-32.672471	-3.473374	-0.107916	-96.027593	-0.107916	-96.027593	-32.670768	-3.290686
2.200000	-29.939278	-6.727496	-0.113155	-98.373948	-0.113155	-98.373948	-29.938327	-6.588781
2.250000	-27.764516	-9.629444	-0.119300	-100.730657	-0.119300	-100.730657	-27.763914	-9.517225
2.300000	-25.948024	-12.361291	-0.126460	-103.097776	-0.126460	-103.097776	-25.947612	-12.266850
2.350000	-24.381564	-14.999532	-0.134756	-105.475391	-0.134756	-105.475391	-24.381266	-14.917847
2.400000	-23.000268	-17.582728	-0.144315	-107.863529	-0.144315	-107.863529	-23.000043	-17.510648
2.450000	-21.762183	-20.132370	-0.155263	-110.262155	-0.155263	-110.262155	-21.762009	-20.067787
2.500000	-20.638613	-22.661326	-0.167733	-112.671171	-0.167733	-112.671171	-20.638474	-22.602761
2.550000	-19.608696	-25.177636	-0.181878	-115.090518	-0.181878	-115.090518	-19.608584	-25.124003
2.600000	-18.657752	-27.686757	-0.197817	-117.519844	-0.197817	-117.519844	-18.657660	-27.637254
2.650000	-17.774256	-30.192196	-0.215684	-119.958834	-0.215684	-119.958834	-17.774179	-30.146201
2.700000	-16.949248	-32.696310	-0.235615	-122.407101	-0.235615	-122.407101	-16.949183	-32.653337
2.750000	-16.175627	-35.200666	-0.257742	-124.864180	-0.257742	-124.864180	-16.175572	-35.160322
2.800000	-15.447674	-37.706255	-0.282196	-127.329531	-0.282196	-127.329531	-15.447627	-37.668223
2.850000	-14.760597	-40.213660	-0.309122	-129.802596	-0.309122	-129.802596	-14.760557	-40.177675
2.900000	-14.110642	-42.723101	-0.338632	-132.282631	-0.338632	-132.282631	-14.110607	-42.688945
2.950000	-13.494605	-45.234535	-0.370833	-134.768848	-0.370833	-134.768848	-13.494574	-45.202024
3.000000	-12.909738	-47.747711	-0.405834	-137.260412	-0.405834	-137.260412	-12.909711	-47.716690
3.050000	-12.353693	-50.262202	-0.443733	-139.756421	-0.443733	-139.756421	-12.353669	-50.232535
3.100000	-11.824446	-52.777428	-0.484623	-142.255909	-0.484623	-142.255909	-11.824425	-52.749000
3.150000	-11.320215	-55.292683	-0.528598	-144.757862	-0.528598	-144.757862	-11.320196	-55.265392
3.200000	-10.839475	-57.807138	-0.575730	-147.261186	-0.575730	-147.261186	-10.839459	-57.780895
3.250000	-10.380893	-60.319887	-0.626059	-149.764748	-0.626059	-149.764748	-10.380878	-60.294615
3.300000	-9.943249	-62.829950	-0.679630	-152.267390	-0.679630	-152.267390	-9.943236	-62.805579
3.350000	-9.525453	-65.336285	-0.736474	-154.767923	-0.736474	-154.767923	-9.525441	-65.312755
3.400000	-9.126514	-67.837803	-0.796610	-157.265135	-0.796610	-157.265135	-9.126504	-67.815059
3.450000	-8.745536	-70.333361	-0.860050	-159.757785	-0.860050	-159.757785	-8.745527	-70.311354
3.500000	-8.381706	-72.821756	-0.926797	-162.244593	-0.926797	-162.244593	-8.381698	-72.800441
3.550000	-8.034254	-75.301880	-0.996804	-164.724369	-0.996804	-164.724369	-8.034247	-75.281217
3.600000	-7.702466	-77.772574	-1.070032	-167.195896	-1.070032	-167.195896	-7.702460	-77.752527
3.650000	-7.385672	-80.232693	-1.146430	-169.657980	-1.146430	-169.657980	-7.385667	-80.213229
3.700000	-7.083243	-82.681111	-1.225932	-172.109452	-1.225932	-172.109452	-7.083239	-82.662200
3.750000	-6.794582	-85.116735	-1.308459	-174.549183	-1.308459	-174.549183	-6.794578	-85.098350
3.800000	-6.519168	-87.538348	-1.393944	-176.975935	-1.393944	-176.975935	-6.519165	-87.520463
3.850000	-6.256417	-89.945082	-1.482260	-179.388799	-1.482260	-179.388799	-6.256415	-89.927674
3.900000	-6.005808	-92.335985	-1.573293	178.213203	-1.573293	178.213203	-6.005806	-92.319032
3.950000	-5.766840	-94.710163	-1.666924	175.830988	-1.666924	175.830988	-5.766839	-94.693646
4.000000	-5.539030	-97.066789	-1.763021	173.465406	-1.763021	173.465406	-5.539030	-97.050689
4.050000	-5.321913	-99.405102	-1.861447	171.117241	-1.861447	171.117241	-5.321913	-99.389403
4.100000	-5.115080	-101.724253	-1.962066	168.787355	-1.962066	168.787355	-5.115081	-101.708939
4.150000	-4.918071	-104.023722	-2.064719	166.476294	-2.064719	166.476294	-4.918072	-104.008779
4.200000	-4.730546	-106.302629	-2.169260	164.184947	-2.169260	164.184947	-4.730548	-106.288042
4.250000	-4.551875	-108.561404	-2.275512	161.912939	-2.275512	161.912939	-4.551877	-108.547162
4.300000	-4.381790	-110.799160	-2.383331	159.661156	-2.383331	159.661156	-4.381792	-110.785251
4.350000	-4.219910	-113.015579	-2.492558	157.429939	-2.492558	157.429939	-4.219913	-113.001991
4.400000	-4.065920	-115.210177	-2.603032	155.219784	-2.603032	155.219784	-4.065924	-115.196900
4.450000	-3.919463	-117.382770	-2.714587	153.030896	-2.714587	153.030896	-3.919467	-117.369795
4.500000	-3.780142	-119.533485	-2.827069	150.863178	-2.827069	150.863178	-3.780146	-119.520803
4.550000	-3.647625	-121.662276	-2.940323	148.716698	-2.940323	148.716698	-3.647629	-121.649878
4.600000	-3.521594	-123.769156	-3.054199	146.591464	-3.054199	146.591464	-3.521599	-123.757035
4.650000	-3.401744	-125.854193	-3.168548	144.487430	-3.168548	144.487430	-3.401750	-125.842341
4.700000	-3.287782	-127.917508	-3.283226	142.404498	-3.283226	142.404498	-3.287787	-127.905918
4.750000	-3.179425	-129.959270	-3.398095	140.342523	-3.398095	140.342523	-3.179430	-129.947935
4.800000	-3.076403	-131.979689	-3.513018	138.301315	-3.513018	138.301315	-3.076409	-131.968603
4.850000	-2.978458	-133.979020	-3.627867	136.280647	-3.627867	136.280647	-2.978464	-133.968177
4.900000	-2.885343	-135.957550	-3.742514	134.280251	-3.742514	134.280251	-2.885350	-135.946946
4.950000	-2.796821	-137.915602	-3.856841	132.299832	-3.856841	132.299832	-2.796828	-137.905230
5.000000	-2.712668	-139.853526	-3.970733	130.339063	-3.970733	130.339063	-2.712675	-139.843383
5.050000	-2.632738	-141.771281	-4.084035	128.398002	-4.084035	128.398002	-2.632745	-141.761360
5.100000	-2.556750	-143.669703	-4.196684	126.475847	-4.196684	126.475847	-2.556757	-143.660002
5.150000	-2.484509	-145.549215	-4.308582	124.572203	-4.308582	124.572203	-2.484517	-145.539728
5.200000	-2.415830	-147.410252	-4.419637	122.686660	-4.419637	122.686660	-2.415838	-147.400976
5.250000	-2.350537	-149.253265	-4.529760	120.818793	-4.529760	120.818793	-2.350545	-149.244197
5.300000	-2.288462	-151.078716	-4.638869	118.968166	-4.638869	118.968166	-2.288470	-151.069853
5.350000	-2.229445	-152.887077	-4.746885	117.134337	-4.746885	117.134337	-2.229454	-152.878414
5.400000	-2.173337	-154.678826	-4.853735	115.316852	-4.853735	115.316852	-2.173345	-154.670361
5.450000	-2.119993	-156.454445	-4.959349	113.515257	-4.959349	113.515257	-2.120002	-156.446175
5.500000	-2.069278	-158.214422	-5.063664	111.729092	-5.063664	111.729092	-2.069287	-158.206344
5.550000	-2.021064	-159.959245	-5.166620	109.957897	-5.166620	109.957897	-2.021073	-159.951357
5.600000	-1.975228	-161.689403	-5.268159	108.201209	-5.268159	108.201209	-1.975237	-161.681702
5.650000	-1.931675	-163.405235	-5.368200	106.458715	-5.368200	106.458715	-1.931685	-163.397719
5.700000	-1.890295	-165.107245	-5.466695	104.729942	-5.466695	104.729942	-1.890304	-165.099911
5.750000	-1.850961	-166.796068	-5.563628	103.014282	-5.563628	103.014282	-1.850970	-166.788915
5.800000	-1.813575	-168.472183	-5.658956	101.311282	-5.658956	101.311282	-1.813585	-168.465210
5.850000	-1.778046	-170.136066	-5.752640	99.620496	-5.752640	99.620496	-1.778056	-170.129269
5.900000	-1.744285	-171.788184	-5.844646	97.941481	-5.844646	97.941481	-1.744296	-171.781563
5.950000	-1.712211	-173.429001	-5.934941	96.273802	-5.934941	96.273802	-1.712222	-173.422554
6.000000	-1.681744	-175.058973	-6.023494	94.617027	-6.023494	94.617027	-1.681755	-175.052698
6.050000	-1.652811	-176.678550	-6.110277	92.970734	-6.110277	92.970734	-1.652822	-176.672446
6.100000	-1.625342	-178.288175	-6.195266	91.334504	-6.195266	91.334504	-1.625354	-178.282241
6.150000	-1.599271	-179.888282	-6.278436	89.707928	-6.278436	89.707928	-1.599282	-179.882517
6.200000	-1.574534	178.520700	-6.359768	88.090602	-6.359768	88.090602	-1.574546	178.526298
6.250000	-1.551073	176.938352	-6.439242	86.482131	-6.439242	86.482131	-1.551085	176.943783
6.300000	-1.528857	175.364431	-6.516784	84.882301	-6.516784	84.882301	-1.528869	175.369697
6.350000	-1.507805	173.798346	-6.592436	83.290539	-6.592436	83.290539	-1.507817	173.803447
6.400000	-1.487868	172.239700	-6.666185	81.706471	-6.666185	81.706471	-1.487881	172.244637
6.450000	-1.469000	170.688107	-6.738017	80.129731	-6.738017	80.129731	-1.469012	170.692881
6.500000	-1.451154	169.143187	-6.807921	78.559960	-6.807921	78.559960	-1.451167	169.147799
6.550000	-1.434291	167.604569	-6.875888	76.996807	-6.875888	76.996807	-1.434304	167.609018
6.600000	-1.418368	166.071887	-6.941909	75.439927	-6.941909	75.439927	-1.418381	166.076175
6.650000	-1.403350	164.544788	-7.005977	73.888982	-7.005977	73.888982	-1.403363	164.548915
6.700000	-1.389279	163.023405	-7.067850	72.344162	-7.067850	72.344162	-1.389293	163.027371
6.750000	-1.375969	161.506448	-7.127970	70.804122	-7.127970	70.804122	-1.375983	161.510253
6.800000	-1.363461	159.994044	-7.186121	69.269039	-7.186121	69.269039	-1.363475	159.997689
6.850000	-1.351726	158.485868	-7.242300	67.738599	-7.242300	67.738599	-1.351740	158.489353
6.900000	-1.340734	156.981601	-7.296504	66.212498	-7.296504	66.212498	-1.340748	156.984926
6.950000	-1.330460	155.480932	-7.348730	64.690438	-7.348730	64.690438	-1.330474	155.484098
7.000000	-1.320878	153.983558	-7.398979	63.172123	-7.398979	63.172123	-1.320893	153.986563
7.050000	-1.311965	152.489179	-7.447248	61.657267	-7.447248	61.657267	-1.311979	152.492025
7.100000	-1.303697	150.997507	-7.493538	60.145587	-7.493538	60.145587	-1.303711	151.000192
7.150000	-1.296054	149.508256	-7.537850	58.636806	-7.537850	58.636806	-1.296068	149.510781
7.200000	-1.289015	148.021148	-7.580184	57.130651	-7.580184	57.130651	-1.289030	148.023512
7.250000	-1.282563	146.535911	-7.620543	55.626855	-7.620543	55.626855	-1.282578	146.538115
7.300000	-1.276679	145.052280	-7.658928	54.125156	-7.658928	54.125156	-1.276694	145.054323
7.350000	-1.271347	143.569995	-7.695342	52.625294	-7.695342	52.625294	-1.271362	143.571876
7.400000	-1.266552	142.088802	-7.729788	51.127016	-7.729788	51.127016	-1.266566	142.090520
7.450000	-1.262278	140.608452	-7.762269	49.630072	-7.762269	49.630072	-1.262293	140.610007
7.500000	-1.258513	139.128701	-7.792789	48.134216	-7.792789	48.134216	-1.258527	139.130094
7.550000	-1.255264	137.649318	-7.821264	46.639232	-7.821264	46.639232	-1.255278	137.650546
7.600000	-1.252498	136.170044	-7.847788	45.144832	-7.847788	45.144832	-1.252512	136.171107
7.650000	-1.250204	134.690652	-7.872367	43.650784	-7.872367	43.650784	-1.250218	134.691550
7.700000	-1.248372	133.210920	-7.895004	42.156855	-7.895004	42.156855	-1.248386	133.211652
7.750000	-1.246994	131.730632	-7.915706	40.662817	-7.915706	40.662817	-1.247007	131.731196
7.800000	-1.246060	130.249575	-7.934478	39.168445	-7.934478	39.168445	-1.246073	130.249971
7.850000	-1.245563	128.767541	-7.951326	37.673515	-7.951326	37.673515	-1.245576	128.767767
7.900000	-1.245497	127.284326	-7.966257	36.177807	-7.966257	36.177807	-1.245509	127.284381
7.950000	-1.245854	125.799731	-7.979276	34.681105	-7.979276	34.681105	-1.245866	125.799615
8.000000	-1.246630	124.313561	-7.990391	33.183193	-7.990391	33.183193	-1.246642	124.313273
8.050000	-1.247820	122.825626	-7.999608	31.683858	-7.999608	31.683858	-1.247831	122.825163
8.100000	-1.249420	121.335738	-8.006935	30.182890	-8.006935	30.182890	-1.249431	121.335100
8.150000	-1.251427	119.843714	-8.012380	28.680080	-8.012380	28.680080	-1.251437	119.842900
8.200000	-1.253838	118.349376	-8.015950	27.175221	-8.015950	27.175221	-1.253847	118.348383
8.250000	-1.256651	116.852546	-8.017654	25.668109	-8.017654	25.668109	-1.256660	116.851374
8.300000	-1.259865	115.353054	-8.017499	24.158541	-8.017499	24.158541	-1.259873	115.351701
8.350000	-1.263457	113.850907	-8.015601	22.646485	-8.015601	22.646485	-1.263464	113.849372
8.400000	-1.267458	112.345705	-8.011817	21.131519	-8.011817	21.131519	-1.267464	112.343985
8.450000	-1.271893	110.837080	-8.006051	19.613241	-8.006051	19.613241	-1.271899	110.835175
8.500000	-1.276710	109.325310	-7.998561	18.091880	-7.998561	18.091880	-1.276715	109.323218
8.550000	-1.281942	107.809977	-7.989213	16.566982	-7.989213	16.566982	-1.281946	107.807697
8.600000	-1.287583	106.290999	-7.978055	15.038422	-7.978055	15.038422	-1.287587	106.288528
8.650000	-1.293622	104.768368	-7.965165	13.506154	-7.965165	13.506154	-1.293625	104.765705
8.700000	-1.300103	103.241565	-7.950380	11.969603	-7.950380	11.969603	-1.300105	103.238708
8.750000	-1.306966	101.711066	-7.933989	10.429223	-7.933989	10.429223	-1.306968	101.708014
8.800000	-1.314307	100.175845	-7.915621	8.883902	-7.915621	8.883902	-1.314308	100.172596
8.850000	-1.322042	98.636668	-7.895668	7.334402	-7.895668	7.334402	-1.322042	98.633220
8.900000	-1.330245	97.092718	-7.873866	5.779817	-7.873866	5.779817	-1.330244	97.089071
8.950000	-1.338882	95.544300	-7.850399	4.220433	-7.850399	4.220433	-1.338880	95.540451
9.000000	-1.347978	93.991102	-7.825210	2.655872	-7.825210	2.655872	-1.347975	93.987050
9.050000	-1.357552	92.432900	-7.798277	1.085849	-7.798277	1.085849	-1.357548	92.428644
9.100000	-1.367579	90.869949	-7.769751	-0.489394	-7.769751	-0.489394	-1.367574	90.865489
9.150000	-1.378133	89.301435	-7.739403	-2.070797	-7.739403	-2.070797	-1.378128	89.296768
9.200000	-1.389144	87.728139	-7.707556	-3.657533	-7.707556	-3.657533	-1.389137	87.723265
9.250000	-1.400719	86.148906	-7.673882	-5.250931	-7.673882	-5.250931	-1.400711	86.143824
9.300000	-1.412784	84.564558	-7.638701	-6.850103	-7.638701	-6.850103	-1.412776	84.559268
9.350000	-1.425414	82.974332	-7.601822	-8.455951	-7.601822	-8.455951	-1.425405	82.968833
9.400000	-1.438594	81.378438	-7.563364	-10.068272	-7.563364	-10.068272	-1.438584	81.372730
9.450000	-1.452340	79.776758	-7.523340	-11.687233	-7.523340	-11.687233	-1.452330	79.770841
9.500000	-1.466702	78.168828	-7.481662	-13.313400	-7.481662	-13.313400	-1.466691	78.162704
9.550000	-1.481631	76.555236	-7.438551	-14.946125	-7.438551	-14.946125	-1.481619	76.548904
9.600000	-1.497250	74.934788	-7.393715	-16.586820	-7.393715	-16.586820	-1.497237	74.928251
9.650000	-1.513462	73.308580	-7.347510	-18.234235	-7.347510	-18.234235	-1.513448	73.301838
9.700000	-1.530396	71.675381	-7.299646	-19.889830	-7.299646	-19.889830	-1.530382	71.668437
9.750000	-1.547988	70.035953	-7.250377	-21.552732	-7.250377	-21.552732	-1.547973	70.028809
9.800000	-1.566312	68.389664	-7.199581	-23.223697	-7.199581	-23.223697	-1.566296	68.382325
9.850000	-1.585379	66.736525	-7.147311	-24.902723	-7.147311	-24.902723	-1.585362	66.728994
9.900000	-1.605187	65.076680	-7.093650	-26.589648	-7.093650	-26.589648	-1.605169	65.068962
9.950000	-1.625833	63.409328	-7.038443	-28.285417	-7.038443	-28.285417	-1.625813	63.401429
10.000000	-1.647226	61.735448	-6.981981	-29.988875	-6.981981	-29.988875	-1.647205	61.727372
