! freq	dB(S11)	phase(S11)	dB(S12)	phase(S12)	
!     	dB(S21)	phase(S21)	dB(S22)	phase(S22)	
!S-par simulation data
#  GHz  S  DB  R 50
0.000000	-80.121115	0.000000	-0.000857	0.000000	-0.000857	0.000000	-80.121115	0.000000
0.050000	-24.041703	-98.273303	-0.032143	-8.443582	-0.032143	-8.443582	-24.044646	-98.949662
0.100000	-18.191774	-106.410024	-0.092947	-16.738754	-0.092947	-16.738754	-18.196948	-107.748705
0.150000	-14.903103	-114.288642	-0.180698	-24.883781	-0.180698	-24.883781	-14.911795	-116.284157
0.200000	-12.691982	-121.963201	-0.288352	-32.850736	-0.288352	-32.850736	-12.700733	-124.620565
0.250000	-11.093143	-129.432020	-0.408995	-40.625967	-0.408995	-40.625967	-11.100129	-132.749269
0.300000	-9.896614	-136.692585	-0.535618	-48.205169	-0.535618	-48.205169	-9.902171	-140.663740
0.350000	-8.990135	-143.749703	-0.661094	-55.591253	-0.661094	-55.591253	-8.995263	-148.366366
0.400000	-8.305294	-150.619304	-0.778466	-62.797697	-0.778466	-62.797697	-8.310810	-155.870869
0.450000	-7.793970	-157.330346	-0.882142	-69.850906	-0.882142	-69.850906	-7.800248	-163.204748
0.500000	-7.427711	-163.911459	-0.967241	-76.777438	-0.967241	-76.777438	-7.434754	-170.395012
0.550000	-7.187146	-170.396522	-1.030088	-83.609337	-1.030088	-83.609337	-7.194690	-177.473766
0.600000	-7.060308	-176.822192	-1.068177	-90.381728	-1.068177	-90.381728	-7.067938	175.524786
0.650000	-7.043072	176.772829	-1.079705	-97.132023	-1.079705	-97.132023	-7.050312	168.566025
0.700000	-7.134973	170.347376	-1.064502	-103.900304	-1.064502	-103.900304	-7.141360	161.614519
0.750000	-7.339182	163.861822	-1.024024	-110.725236	-1.024024	-110.725236	-7.344301	154.638454
0.800000	-7.666604	157.277664	-0.960412	-117.644141	-0.960412	-117.644141	-7.670078	147.611413
0.850000	-8.136609	150.556484	-0.876805	-124.693622	-0.876805	-124.693622	-8.138039	140.514008
0.900000	-8.776205	143.664793	-0.777915	-131.904293	-0.777915	-131.904293	-8.775041	133.341183
0.950000	-9.621950	136.579685	-0.669576	-139.294729	-0.669576	-139.294729	-9.617233	126.109945
1.000000	-10.748924	129.259835	-0.558049	-146.895793	-0.558049	-146.895793	-10.738576	118.872364
1.050000	-12.255347	121.689254	-0.451368	-154.705569	-0.451368	-154.705569	-12.234606	111.764905
1.100000	-14.326626	113.834853	-0.357507	-162.715518	-0.357507	-162.715518	-14.283032	105.104425
1.150000	-17.355294	105.593980	-0.284477	-170.903273	-0.284477	-170.903273	-17.246899	99.819031
1.200000	-22.448274	96.489277	-0.238207	-179.226031	-0.238207	-179.226031	-22.047313	99.444696
1.250000	-37.503710	76.754694	-0.223900	172.365091	-0.223900	172.365091	-31.107385	135.290905
1.300000	-25.981247	-93.063638	-0.244659	163.931356	-0.244659	163.931356	-24.988762	-143.563484
1.350000	-19.013712	-103.415720	-0.299076	155.537424	-0.299076	155.537424	-18.806188	-137.557528
1.400000	-15.331244	-111.957253	-0.383246	147.239019	-0.383246	147.239019	-15.248871	-141.612460
1.450000	-12.909994	-120.025253	-0.492183	139.086749	-0.492183	139.086749	-12.867772	-147.887065
1.500000	-11.178421	-127.802106	-0.618116	131.113364	-0.618116	131.113364	-11.152952	-154.838782
1.550000	-9.891605	-135.332086	-0.752790	123.336814	-0.752790	123.336814	-9.873494	-162.001256
1.600000	-8.921259	-142.637308	-0.887788	115.761246	-0.887788	115.761246	-8.905850	-169.182954
1.650000	-8.189048	-149.744155	-1.015210	108.374215	-1.015210	108.374215	-8.173752	-176.299875
1.700000	-7.647220	-156.682210	-1.127860	101.154809	-1.127860	101.154809	-7.630450	176.681514
1.750000	-7.258080	-163.494375	-1.220863	94.066418	-1.220863	94.066418	-7.238848	169.762282
1.800000	-7.005619	-170.219211	-1.288924	87.076602	-1.288924	87.076602	-6.983166	162.936544
1.850000	-6.877725	-176.906407	-1.328661	80.142232	-1.328661	80.142232	-6.851382	156.186422
1.900000	-6.865740	176.390773	-1.339053	73.216972	-1.339053	73.216972	-6.834762	149.489353
1.950000	-6.972440	169.615994	-1.319237	66.254392	-1.319237	66.254392	-6.935762	142.827063
2.000000	-7.211110	162.700832	-1.269015	59.201774	-1.269015	59.201774	-7.166975	136.187354
2.050000	-7.593031	155.582673	-1.192185	52.014398	-1.192185	52.014398	-7.538588	129.570198
2.100000	-8.145660	148.186416	-1.092686	44.647041	-1.092686	44.647041	-8.076005	123.001096
2.150000	-8.921489	140.397427	-0.975537	37.044810	-0.975537	37.044810	-8.827352	116.562141
2.200000	-9.978066	132.116606	-0.849585	29.187800	-0.849585	29.187800	-9.842368	110.408422
2.250000	-11.438244	123.111236	-0.724152	21.039568	-0.724152	21.039568	-11.223933	104.924549
2.300000	-13.502516	112.958008	-0.610737	12.598810	-0.610737	12.598810	-13.119243	100.954287
2.350000	-16.592920	100.464533	-0.521129	3.884027	-0.521129	3.884027	-15.764602	100.643964
2.400000	-21.805772	79.746026	-0.467462	-5.065611	-0.467462	-5.065611	-19.325191	110.925925
2.450000	-29.055406	4.078940	-0.458089	-14.175996	-0.458089	-14.175996	-21.782954	145.135730
2.500000	-21.414352	-67.924029	-0.499616	-23.359370	-0.499616	-23.359370	-18.906320	177.767371
2.550000	-16.101445	-88.538182	-0.591545	-32.514784	-0.591545	-32.514784	-15.200110	-172.984390
2.600000	-12.869017	-101.357540	-0.729280	-41.548459	-0.729280	-41.548459	-12.425043	-173.726015
2.650000	-10.663784	-111.900509	-0.903914	-50.381284	-0.903914	-50.381284	-10.399047	-178.095715
2.700000	-9.078834	-121.333888	-1.103225	-58.951774	-1.103225	-58.951774	-8.899275	176.057684
2.750000	-7.907613	-130.079367	-1.312423	-67.241806	-1.312423	-67.241806	-7.773861	169.620957
2.800000	-7.036750	-138.317225	-1.517558	-75.254527	-1.517558	-75.254527	-6.929032	162.965625
2.850000	-6.396472	-146.167051	-1.705492	-83.016530	-1.705492	-83.016530	-6.303502	156.271694
2.900000	-5.946102	-153.725373	-1.863338	-90.570428	-1.863338	-90.570428	-5.860391	149.623412
2.950000	-5.657982	-161.100795	-1.980398	-97.985701	-1.980398	-97.985701	-5.573731	143.048983
3.000000	-5.508399	-168.405751	-2.052064	-105.345411	-2.052064	-105.345411	-5.420481	136.540747
3.050000	-5.509571	-175.759112	-2.067194	-112.742058	-2.067194	-112.742058	-5.411405	130.088827
3.100000	-5.665596	176.697560	-2.025097	-120.286631	-2.025097	-120.286631	-5.548508	123.674461
3.150000	-6.014705	168.781392	-1.922531	-128.117278	-1.922531	-128.117278	-5.864420	117.306542
3.200000	-6.617763	160.264493	-1.763557	-136.390733	-1.763557	-136.390733	-6.408745	111.059118
3.250000	-7.591242	150.824704	-1.558516	-145.291360	-1.558516	-145.291360	-7.271177	105.182276
3.300000	-9.160083	139.948276	-1.328737	-155.020084	-1.328737	-155.020084	-8.602993	100.389724
3.350000	-11.832576	126.458819	-1.112121	-165.784960	-1.112121	-165.784960	-10.646185	98.848189
3.400000	-17.074667	105.342947	-0.968232	-177.708452	-0.968232	-177.708452	-13.501828	107.295207
3.450000	-25.786641	8.177084	-0.973945	169.270643	-0.973945	169.270643	-14.989078	136.823057
3.500000	-14.867549	-65.632784	-1.206650	155.491177	-1.206650	155.491177	-11.902566	161.843427
3.550000	-9.400348	-86.758894	-1.713262	141.570068	-1.713262	141.570068	-8.314557	165.361234
3.600000	-6.315082	-102.423233	-2.484986	128.222792	-2.484986	128.222792	-5.772208	160.062533
3.650000	-4.399574	-115.640239	-3.460128	115.988359	-3.460128	115.988359	-4.077515	152.181676
3.700000	-3.165461	-126.951810	-4.558719	105.104732	-4.558719	105.104732	-2.954273	143.918538
3.750000	-2.354026	-136.624578	-5.707888	95.574364	-5.707888	95.574364	-2.206361	136.066513
3.800000	-1.803525	-144.967220	-6.860855	87.213360	-6.860855	87.213360	-1.696047	128.836673
3.850000	-1.422128	-152.217696	-7.986823	79.842061	-7.986823	79.842061	-1.341614	122.239615
3.900000	-1.156032	-158.545610	-9.057894	73.321881	-9.057894	73.321881	-1.094116	116.238878
3.950000	-0.962659	-164.177839	-10.076042	67.450788	-10.076042	67.450788	-0.914174	110.716610
4.000000	-0.819714	-169.244240	-11.036610	62.111565	-11.036610	62.111565	-0.781076	105.598138
4.050000	-0.712950	-173.838266	-11.933792	57.219052	-11.933792	57.219052	-0.681537	100.825850
4.100000	-0.631421	-178.055611	-12.772009	52.684516	-12.772009	52.684516	-0.605350	96.334907
4.150000	-0.567701	178.027100	-13.557765	48.436383	-13.557765	48.436383	-0.545602	92.071399
4.200000	-0.517280	174.359707	-14.293102	44.427717	-14.293102	44.427717	-0.498109	87.999579
4.250000	-0.476945	170.901879	-14.980145	40.620632	-14.980145	40.620632	-0.459904	84.090253
4.300000	-0.444374	167.620916	-15.620985	36.984278	-15.620985	36.984278	-0.428860	80.319491
4.350000	-0.419682	164.539592	-16.186464	33.541399	-16.186464	33.541399	-0.405137	76.707282
4.400000	-0.396883	161.508548	-16.757537	30.147346	-16.757537	30.147346	-0.383197	73.135520
4.450000	-0.379911	158.642934	-17.250549	26.914090	-17.250549	26.914090	-0.366799	69.697800
4.500000	-0.364971	155.839514	-17.726011	23.741125	-17.726011	23.741125	-0.352426	66.311860
4.550000	-0.352849	153.123166	-18.159425	20.652565	-18.159425	20.652565	-0.340867	62.998412
4.600000	-0.343147	150.484879	-18.548600	17.638472	-18.548600	17.638472	-0.331921	59.752389
4.650000	-0.334582	147.883232	-18.923259	14.659331	-18.923259	14.659331	-0.324203	56.538016
4.700000	-0.328609	145.364730	-19.233447	11.756042	-19.233447	11.756042	-0.319603	53.399279
4.750000	-0.323259	142.865070	-19.534845	8.868623	-19.534845	8.868623	-0.315827	50.278663
4.800000	-0.319688	140.418423	-19.786928	6.024560	-19.786928	6.024560	-0.314473	47.209997
4.850000	-0.317039	137.995356	-20.015230	3.195013	-20.015230	3.195013	-0.314539	44.167093
4.900000	-0.315420	135.598645	-20.213875	0.381689	-20.213875	0.381689	-0.316193	41.152979
4.950000	-0.315127	133.228355	-20.372479	-2.426867	-20.372479	-2.426867	-0.320114	38.172792
5.000000	-0.315310	130.867538	-20.517769	-5.233714	-20.517769	-5.233714	-0.324850	35.204769
5.050000	-0.315666	128.520564	-20.616616	-7.982061	-20.616616	-7.982061	-0.326959	32.236011
5.100000	-0.316670	126.180256	-20.687169	-10.730283	-20.687169	-10.730283	-0.329913	29.275623
5.150000	-0.318308	123.843115	-20.728955	-13.480631	-20.728955	-13.480631	-0.333697	26.320320
5.200000	-0.320576	121.505722	-20.741564	-16.235717	-20.741564	-16.235717	-0.338307	23.366763
5.250000	-0.323480	119.164708	-20.724628	-18.998495	-20.724628	-18.998495	-0.343760	20.411533
5.300000	-0.327032	116.816718	-20.677804	-21.772236	-20.677804	-21.772236	-0.350082	17.451093
5.350000	-0.331256	114.458384	-20.600767	-24.560526	-20.600767	-24.560526	-0.357316	14.481751
5.400000	-0.336279	112.084036	-20.489156	-27.370220	-20.489156	-27.370220	-0.365651	11.497363
5.450000	-0.342129	109.689778	-20.343826	-30.206040	-20.343826	-30.206040	-0.375141	8.493042
5.500000	-0.348833	107.272756	-20.166247	-33.071668	-20.166247	-33.071668	-0.385834	5.464885
5.550000	-0.356480	104.828943	-19.955747	-35.972513	-19.955747	-35.972513	-0.397867	2.407639
5.600000	-0.365186	102.354022	-19.711611	-38.914513	-19.711611	-38.914513	-0.411407	-0.684499
5.650000	-0.375092	99.843325	-19.433080	-41.904229	-19.433080	-41.904229	-0.426657	-3.817988
5.700000	-0.386370	97.291761	-19.119356	-44.948942	-19.119356	-44.948942	-0.443861	-7.000061
5.750000	-0.399343	94.690719	-18.766606	-48.060928	-18.766606	-48.060928	-0.463465	-10.242673
5.800000	-0.414536	92.027509	-18.368158	-51.258502	-18.368158	-51.258502	-0.486188	-13.563865
5.850000	-0.432146	89.300482	-17.928985	-54.545014	-17.928985	-54.545014	-0.512278	-16.968176
5.900000	-0.452697	86.500621	-17.447461	-57.934137	-17.447461	-57.934137	-0.542422	-20.469813
5.950000	-0.476870	83.617461	-16.921855	-61.441905	-16.921855	-61.441905	-0.577506	-24.085556
6.000000	-0.505548	80.638777	-16.350361	-65.087245	-16.350361	-65.087245	-0.618670	-27.835360
6.050000	-0.539892	77.550204	-15.731141	-68.892648	-15.731141	-68.892648	-0.667395	-31.743081
6.100000	-0.581422	74.334799	-15.062397	-72.884956	-15.062397	-72.884956	-0.725620	-35.837352
6.150000	-0.634514	70.939803	-14.319714	-77.146250	-14.319714	-77.146250	-0.798890	-40.203846
6.200000	-0.700243	67.375304	-13.527586	-81.666075	-13.527586	-81.666075	-0.888458	-44.835332
6.250000	-0.784832	63.587165	-12.669404	-86.533001	-12.669404	-86.533001	-1.002131	-49.826070
6.300000	-0.895530	59.534935	-11.744056	-91.820217	-11.744056	-91.820217	-1.148931	-55.256755
6.350000	-1.046011	55.148684	-10.740318	-97.658677	-10.740318	-97.658677	-1.345881	-61.271583
6.400000	-1.249942	50.400058	-9.675336	-104.125916	-9.675336	-104.125916	-1.610273	-67.961299
6.450000	-1.539561	45.197842	-8.538724	-111.444730	-8.538724	-111.444730	-1.983104	-75.579326
6.500000	-1.958767	39.512615	-7.348374	-119.814515	-7.348374	-119.814515	-2.522288	-84.369226
6.550000	-2.579717	33.392861	-6.131959	-129.487874	-6.131959	-129.487874	-3.328449	-94.666285
6.600000	-3.513861	27.139773	-4.940631	-140.711932	-4.940631	-140.711932	-4.576242	-106.885954
6.650000	-4.915771	21.695245	-3.855823	-153.623135	-3.855823	-153.623135	-6.582646	-121.567986
6.700000	-6.923069	19.542153	-2.985651	-168.079358	-2.985651	-168.079358	-9.998346	-139.890971
6.750000	-9.278631	25.671132	-2.427286	176.538413	-2.427286	176.538413	-16.571153	-168.902649
6.800000	-10.522923	42.493372	-2.209681	161.172074	-2.209681	161.172074	-22.443745	79.701880
6.850000	-9.578233	57.745995	-2.277963	146.687781	-2.277963	146.687781	-13.874182	22.098085
6.900000	-7.931615	63.138786	-2.528337	133.554896	-2.528337	133.554896	-9.848246	2.013906
6.950000	-6.592626	62.346366	-2.858236	121.833247	-2.858236	121.833247	-7.715750	-12.360073
7.000000	-5.664397	58.940513	-3.192589	111.328658	-3.192589	111.328658	-6.481075	-24.273745
7.050000	-5.049993	54.533358	-3.487851	101.752024	-3.487851	101.752024	-5.747449	-34.763003
7.100000	-4.668344	49.752634	-3.719114	92.862600	-3.719114	92.862600	-5.339833	-44.335888
7.150000	-4.457308	44.869969	-3.877284	84.420218	-3.877284	84.420218	-5.158832	-53.377013
7.200000	-4.376678	39.993377	-3.962972	76.226840	-3.962972	76.226840	-5.150359	-62.174420
7.250000	-4.407782	35.173727	-3.978342	68.131194	-3.978342	68.131194	-5.294781	-70.953453
7.300000	-4.543039	30.454497	-3.928234	59.998700	-3.928234	59.998700	-5.591339	-79.934149
7.350000	-4.775456	25.884895	-3.824166	51.721178	-3.824166	51.721178	-6.043951	-89.318345
7.400000	-5.106938	21.547218	-3.676761	43.210666	-3.676761	43.210666	-6.675766	-99.331985
7.450000	-5.545393	17.601413	-3.497610	34.376460	-3.497610	34.376460	-7.533473	-110.330463
7.500000	-6.085642	14.237911	-3.304207	25.180786	-3.304207	25.180786	-8.663050	-122.706363
7.550000	-6.716478	11.734100	-3.112023	15.603115	-3.112023	15.603115	-10.134721	-137.166677
7.600000	-7.401926	10.482457	-2.939566	5.642219	-2.939566	5.642219	-12.016950	-155.248666
7.650000	-8.064627	10.761122	-2.803274	-4.646901	-2.803274	-4.646901	-14.237499	-179.712795
7.700000	-8.592018	12.562610	-2.714925	-15.178402	-2.714925	-15.178402	-16.150159	145.907515
7.750000	-8.858425	15.411224	-2.682726	-25.851381	-2.682726	-25.851381	-16.211716	104.870933
7.800000	-8.805501	18.286969	-2.707596	-36.550223	-2.707596	-36.550223	-14.446800	70.669749
7.850000	-8.498094	20.217518	-2.781186	-47.175497	-2.781186	-47.175497	-12.429304	46.046806
7.900000	-8.050093	20.722233	-2.892612	-57.659180	-2.892612	-57.659180	-10.772844	27.344861
7.950000	-7.572235	19.768139	-3.028490	-67.962930	-3.028490	-67.962930	-9.552464	11.915933
8.000000	-7.139475	17.729690	-3.173294	-78.106697	-3.173294	-78.106697	-8.703298	-1.840808
8.050000	-6.784781	14.950822	-3.315101	-88.136141	-3.315101	-88.136141	-8.168993	-14.698155
8.100000	-6.522374	11.735783	-3.444225	-98.126794	-3.444225	-98.126794	-7.926936	-27.197092
8.150000	-6.345623	8.377815	-3.556690	-108.181389	-3.556690	-108.181389	-7.955679	-39.841813
8.200000	-6.240476	5.104623	-3.653769	-118.410135	-3.653769	-118.410135	-8.263654	-53.141519
8.250000	-6.185421	2.123772	-3.742790	-128.940173	-3.742790	-128.940173	-8.894189	-67.831327
8.300000	-6.143313	-0.407476	-3.839684	-139.885713	-3.839684	-139.885713	-9.896550	-85.055291
8.350000	-6.064207	-2.450192	-3.967960	-151.319661	-3.967960	-151.319661	-11.279081	-106.720510
8.400000	-5.892340	-4.139632	-4.158470	-163.269076	-4.158470	-163.269076	-12.804772	-136.043709
8.450000	-5.584422	-5.849742	-4.447405	-175.677918	-4.447405	-175.677918	-13.456359	-174.884095
8.500000	-5.138618	-8.122235	-4.869751	171.624386	-4.869751	171.624386	-12.138965	145.434411
8.550000	-4.610183	-11.358393	-5.442407	158.914360	-5.442407	158.914360	-9.848826	114.621087
8.600000	-4.071660	-15.670180	-6.166246	146.494044	-6.166246	146.494044	-7.701598	91.832368
8.650000	-3.582926	-20.902313	-7.023608	134.633157	-7.023608	134.633157	-5.991901	74.064939
8.700000	-3.175534	-26.777100	-7.984270	123.516710	-7.984270	123.516710	-4.694665	59.525376
8.750000	-2.855925	-33.024434	-9.013813	113.229686	-9.013813	113.229686	-3.724223	47.276190
8.800000	-2.617904	-39.443292	-10.076257	103.800209	-10.076257	103.800209	-3.003788	36.823733
8.850000	-2.444592	-45.898865	-11.148864	95.142984	-11.148864	95.142984	-2.462005	27.743177
8.900000	-2.322587	-52.321095	-12.210122	87.192545	-12.210122	87.192545	-2.052772	19.798745
8.950000	-2.237436	-58.680857	-13.256489	79.826670	-13.256489	79.826670	-1.736517	12.736555
9.000000	-2.180714	-64.962897	-14.275182	72.986247	-14.275182	72.986247	-1.491385	6.432950
9.050000	-2.145213	-71.163718	-15.258547	66.606099	-15.258547	66.606099	-1.300253	0.772706
9.100000	-2.123795	-77.292179	-16.216371	60.590587	-16.216371	60.590587	-1.146943	-4.391094
9.150000	-2.113740	-83.342910	-17.129342	54.934121	-17.129342	54.934121	-1.026270	-9.076995
9.200000	-2.110184	-89.332518	-18.020858	49.538678	-18.020858	49.538678	-0.926932	-13.423228
9.250000	-2.111728	-95.252038	-18.868418	44.420076	-18.868418	44.420076	-0.847579	-17.417895
9.300000	-2.115755	-101.114922	-19.693353	39.507331	-19.693353	39.507331	-0.781584	-21.158471
9.350000	-2.121041	-106.915501	-20.484775	34.802111	-20.484775	34.802111	-0.727566	-24.651303
9.400000	-2.126399	-112.657607	-21.249603	30.274773	-21.249603	30.274773	-0.682715	-27.939994
9.450000	-2.130906	-118.339192	-21.987352	25.914501	-21.987352	25.914501	-0.645475	-31.046100
9.500000	-2.134026	-123.962434	-22.702409	21.702724	-22.702409	21.702724	-0.614311	-33.997333
9.550000	-2.134926	-129.516572	-23.384711	17.650188	-23.384711	17.650188	-0.588823	-36.792865
9.600000	-2.133501	-135.007795	-24.045578	13.729888	-24.045578	13.729888	-0.567491	-39.467187
9.650000	-2.129554	-140.434572	-24.684953	9.935162	-24.684953	9.935162	-0.549719	-42.032296
9.700000	-2.122980	-145.795688	-25.302700	6.259305	-25.302700	6.259305	-0.535016	-44.498818
9.750000	-2.113756	-151.090535	-25.898624	2.695256	-25.898624	2.695256	-0.522972	-46.876234
9.800000	-2.101941	-156.319586	-26.472518	-0.764634	-26.472518	-0.764634	-0.513253	-49.173114
9.850000	-2.087683	-161.485078	-27.024222	-4.128738	-27.024222	-4.128738	-0.505582	-51.397357
9.900000	-2.070912	-166.586901	-27.544796	-7.393355	-27.544796	-7.393355	-0.500011	-53.547156
9.950000	-2.052466	-171.663867	-28.050073	-10.592187	-28.050073	-10.592187	-0.495851	-55.649323
10.000000	-2.030434	-176.786289	-28.530923	-13.721081	-28.530923	-13.721081	-0.493109	-57.707266
