! freq	dB(S11)	phase(S11)	dB(S12)	phase(S12)	
!     	dB(S21)	phase(S21)	dB(S22)	phase(S22)	
!S-par simulation data
#  GHz  S  DB  R 50
0.000000	-77.781135	0.000000	-0.001121	0.000000	-0.001121	0.000000	-77.781135	0.000000
0.050000	-51.904345	74.193052	-0.008397	-2.758510	-0.008397	-2.758510	-51.659462	75.352166
0.100000	-46.197869	78.060490	-0.011503	-5.515665	-0.011503	-5.515665	-46.145976	77.681877
0.150000	-42.732883	77.782962	-0.015503	-8.261227	-0.015503	-8.261227	-42.729893	77.015978
0.200000	-40.249506	76.435619	-0.019651	-10.998196	-0.019651	-10.998196	-40.262019	75.371015
0.250000	-38.312120	74.619805	-0.023570	-13.728960	-0.023570	-13.728960	-38.328662	73.256701
0.300000	-36.721871	72.590183	-0.027168	-16.456458	-0.027168	-16.456458	-36.737911	70.907073
0.350000	-35.371379	70.447768	-0.030503	-19.182540	-0.030503	-19.182540	-35.385117	68.417350
0.400000	-34.195908	68.239459	-0.033657	-21.908254	-0.033657	-21.908254	-34.206820	65.830391
0.450000	-33.152800	65.991021	-0.036713	-24.634310	-0.036713	-24.634310	-33.161169	63.165176
0.500000	-32.213956	63.722700	-0.039755	-27.361089	-0.039755	-27.361089	-32.220667	60.440779
0.550000	-31.358972	61.444703	-0.042837	-30.088815	-0.042837	-30.088815	-31.365218	57.664050
0.600000	-30.572536	59.164222	-0.046002	-32.817691	-0.046002	-32.817691	-30.579729	54.837214
0.650000	-29.842724	56.887272	-0.049291	-35.547952	-0.049291	-35.547952	-29.852452	51.959257
0.700000	-29.161272	54.617864	-0.052717	-38.279674	-0.052717	-38.279674	-29.174926	49.033700
0.750000	-28.521157	52.359188	-0.056289	-41.013018	-0.056289	-41.013018	-28.539958	46.060299
0.800000	-27.916275	50.114847	-0.060014	-43.748260	-0.060014	-43.748260	-27.941303	43.036372
0.850000	-27.342217	47.887268	-0.063876	-46.485536	-0.063876	-46.485536	-27.374246	39.963107
0.900000	-26.795331	45.678490	-0.067847	-49.224933	-0.067847	-49.224933	-26.834882	36.841727
0.950000	-26.272426	43.490687	-0.071899	-51.966487	-0.071899	-51.966487	-26.319850	33.672802
1.000000	-25.770871	41.325749	-0.076006	-54.710119	-0.076006	-54.710119	-25.826407	30.457284
1.050000	-25.288442	39.185391	-0.080156	-57.455680	-0.080156	-57.455680	-25.352282	27.196053
1.100000	-24.823243	37.071168	-0.084355	-60.203006	-0.084355	-60.203006	-24.895578	23.889790
1.150000	-24.373649	34.984468	-0.088626	-62.951996	-0.088626	-62.951996	-24.454701	20.538927
1.200000	-23.938253	32.926517	-0.093001	-65.702646	-0.093001	-65.702646	-24.028287	17.143636
1.250000	-23.515830	30.898383	-0.097512	-68.455055	-0.097512	-68.455055	-23.615153	13.703872
1.300000	-23.105128	28.901656	-0.102192	-71.209440	-0.102192	-71.209440	-23.214111	10.218439
1.350000	-22.705370	26.936432	-0.107057	-73.965981	-0.107057	-73.965981	-22.824377	6.687971
1.400000	-22.315699	25.003299	-0.112122	-76.724906	-0.112122	-76.724906	-22.445104	3.112076
1.450000	-21.935338	23.102702	-0.117397	-79.486447	-0.117397	-79.486447	-22.075508	-0.509648
1.500000	-21.563581	21.234947	-0.122890	-82.250828	-0.122890	-82.250828	-21.714863	-4.177583
1.550000	-21.199773	19.400199	-0.128608	-85.018267	-0.128608	-85.018267	-21.362487	-7.892061
1.600000	-20.843306	17.598495	-0.134558	-87.788976	-0.134558	-87.788976	-21.017735	-11.653342
1.650000	-20.493608	15.829739	-0.140747	-90.563163	-0.140747	-90.563163	-20.679989	-15.461595
1.700000	-20.150139	14.093705	-0.147185	-93.341034	-0.147185	-93.341034	-20.348660	-19.316881
1.750000	-19.812382	12.390039	-0.153881	-96.122796	-0.153881	-96.122796	-20.023174	-23.219147
1.800000	-19.479909	10.718000	-0.160846	-98.908621	-0.160846	-98.908621	-19.703037	-27.167826
1.850000	-19.152070	9.077646	-0.168099	-101.698813	-0.168099	-101.698813	-19.387558	-31.163601
1.900000	-18.828470	7.467946	-0.175654	-104.493553	-0.175654	-104.493553	-19.076264	-35.205601
1.950000	-18.508658	5.887979	-0.183531	-107.293063	-0.183531	-107.293063	-18.768640	-39.293167
2.000000	-18.192248	4.336525	-0.191748	-110.097538	-0.191748	-110.097538	-18.464223	-43.425228
2.050000	-17.878823	2.812379	-0.200328	-112.907200	-0.200328	-112.907200	-18.162526	-47.600787
2.100000	-17.567981	1.314182	-0.209296	-115.722277	-0.209296	-115.722277	-17.863078	-51.818659
2.150000	-17.259337	-0.159581	-0.218682	-118.542997	-0.218682	-118.542997	-17.565423	-56.077473
2.200000	-16.952498	-1.610529	-0.228518	-121.369610	-0.228518	-121.369610	-17.269100	-60.375764
2.250000	-16.647062	-3.040409	-0.238841	-124.202383	-0.238841	-124.202383	-16.973638	-64.711950
2.300000	-16.342776	-4.451398	-0.249685	-127.041504	-0.249685	-127.041504	-16.678717	-69.083754
2.350000	-16.039338	-5.845639	-0.261092	-129.887206	-0.261092	-129.887206	-16.383973	-73.489033
2.400000	-15.736470	-7.225417	-0.273107	-132.739718	-0.273107	-132.739718	-16.089072	-77.925466
2.450000	-15.433925	-8.593146	-0.285779	-135.599269	-0.285779	-135.599269	-15.793714	-82.390567
2.500000	-15.131486	-9.951362	-0.299161	-138.466081	-0.299161	-138.466081	-15.497638	-86.881696
2.550000	-14.828854	-11.302656	-0.313319	-141.340453	-0.313319	-141.340453	-15.200496	-91.396299
2.600000	-14.525994	-12.649853	-0.328306	-144.222513	-0.328306	-144.222513	-14.902227	-95.931202
2.650000	-14.222796	-13.995735	-0.344191	-147.112453	-0.344191	-147.112453	-14.602697	-100.483423
2.700000	-13.919190	-15.343120	-0.361043	-150.010454	-0.361043	-150.010454	-14.301819	-105.049919
2.750000	-13.615144	-16.694837	-0.378938	-152.916676	-0.378938	-152.916676	-13.999552	-109.627605
2.800000	-13.310664	-18.053701	-0.397959	-155.831261	-0.397959	-155.831261	-13.695906	-114.213384
2.850000	-13.005710	-19.422590	-0.418200	-158.754395	-0.418200	-158.754395	-13.390838	-118.804191
2.900000	-12.700427	-20.804191	-0.439748	-161.686121	-0.439748	-161.686121	-13.084516	-123.396915
2.950000	-12.394973	-22.201083	-0.462695	-164.626473	-0.462695	-164.626473	-12.777123	-127.988570
3.000000	-12.089507	-23.615750	-0.487143	-167.575470	-0.487143	-167.575470	-12.468851	-132.576268
3.050000	-11.784226	-25.050531	-0.513196	-170.533091	-0.513196	-170.533091	-12.159931	-137.157227
3.100000	-11.479353	-26.507599	-0.540964	-173.499271	-0.540964	-173.499271	-11.850629	-141.728788
3.150000	-11.175091	-27.989084	-0.570571	-176.473940	-0.570571	-176.473940	-11.541189	-146.288345
3.200000	-10.871725	-29.496798	-0.602135	-179.456927	-0.602135	-179.456927	-11.231942	-150.833473
3.250000	-10.569609	-31.032172	-0.635767	177.552041	-0.635767	177.552041	-10.923305	-155.362004
3.300000	-10.269063	-32.596542	-0.671591	174.553254	-0.671591	174.553254	-10.615648	-159.871847
3.350000	-9.970419	-34.191011	-0.709729	171.547068	-0.709729	171.547068	-10.309359	-164.361062
3.400000	-9.674018	-35.816445	-0.750308	168.533908	-0.750308	168.533908	-10.004836	-168.827844
3.450000	-9.380191	-37.473558	-0.793458	165.514255	-0.793458	165.514255	-9.702460	-173.270453
3.500000	-9.089259	-39.162914	-0.839319	162.488658	-0.839319	162.488658	-9.402602	-177.687180
3.550000	-8.801634	-40.884402	-0.887994	159.457824	-0.887994	159.457824	-9.105733	177.923210
3.600000	-8.517661	-42.637940	-0.939600	156.422482	-0.939600	156.422482	-8.812250	173.562050
3.650000	-8.237631	-44.423567	-0.994282	153.383412	-0.994282	153.383412	-8.522483	169.230920
3.700000	-7.961998	-46.239921	-1.052073	150.341579	-1.052073	150.341579	-8.236955	164.930152
3.750000	-7.690994	-48.086814	-1.113119	147.297887	-1.113119	147.297887	-7.955925	160.661336
3.800000	-7.424875	-49.963817	-1.177561	144.253379	-1.177561	144.253379	-7.679680	156.426079
3.850000	-7.163987	-51.869362	-1.245436	141.209193	-1.245436	141.209193	-7.408615	152.224862
3.900000	-6.908592	-53.802221	-1.316816	138.166506	-1.316816	138.166506	-7.143028	148.058652
3.950000	-6.658932	-55.761028	-1.391761	135.126551	-1.391761	135.126551	-6.883192	143.928384
4.000000	-6.415226	-57.744290	-1.470320	132.090617	-1.470320	132.090617	-6.629352	139.834972
4.050000	-6.177669	-59.750411	-1.552527	129.060035	-1.552527	129.060035	-6.381731	135.779303
4.100000	-5.946435	-61.777859	-1.638422	126.036242	-1.638422	126.036242	-6.140521	131.762569
4.150000	-5.721677	-63.824732	-1.727994	123.020618	-1.727994	123.020618	-5.905898	127.785421
4.200000	-5.503514	-65.889154	-1.821220	120.014560	-1.821220	120.014560	-5.678000	123.848580
4.250000	-5.292039	-67.969267	-1.918073	117.019489	-1.918073	117.019489	-5.456935	119.952848
4.300000	-5.087342	-70.063285	-2.018527	114.036940	-2.018527	114.036940	-5.242801	116.099350
4.350000	-4.889417	-72.169063	-2.122468	111.068014	-2.122468	111.068014	-5.035609	112.287901
4.400000	-4.698343	-74.284993	-2.229875	108.114446	-2.229875	108.114446	-4.835438	108.520258
4.450000	-4.514125	-76.409155	-2.340649	105.177628	-2.340649	105.177628	-4.642302	104.797107
4.500000	-4.336711	-78.539617	-2.454657	102.258696	-2.454657	102.258696	-4.456153	101.118595
4.550000	-4.166053	-80.674604	-2.571776	99.358899	-2.571776	99.358899	-4.276946	97.485285
4.600000	-4.002083	-82.812401	-2.691872	96.479425	-2.691872	96.479425	-4.104616	93.897683
4.650000	-3.844718	-84.951357	-2.814795	93.621393	-2.814795	93.621393	-3.939078	90.356237
4.700000	-3.693856	-87.089899	-2.940387	90.785851	-2.940387	90.785851	-3.780227	86.861327
4.750000	-3.549379	-89.226534	-3.068479	87.973764	-3.068479	87.973764	-3.627946	83.413267
4.800000	-3.411158	-91.359859	-3.198894	85.186016	-3.198894	85.186016	-3.482102	80.012299
4.850000	-3.279050	-93.488561	-3.331447	82.423406	-3.331447	82.423406	-3.342549	76.658593
4.900000	-3.152905	-95.611423	-3.465947	79.686640	-3.465947	79.686640	-3.209133	73.352248
4.950000	-3.032560	-97.727325	-3.602200	76.976341	-3.602200	76.976341	-3.081687	70.093289
5.000000	-2.917848	-99.835245	-3.740006	74.293036	-3.740006	74.293036	-2.960040	66.881669
5.050000	-2.808683	-101.934047	-3.879142	71.637773	-3.879142	71.637773	-2.844101	63.718291
5.100000	-2.704797	-104.023083	-4.019418	69.010313	-4.019418	69.010313	-2.733600	60.601935
5.150000	-2.606009	-106.101628	-4.160633	66.410919	-4.160633	66.410919	-2.628350	57.532343
5.200000	-2.512135	-108.169050	-4.302587	63.839774	-4.302587	63.839774	-2.528166	54.509194
5.250000	-2.422992	-110.224805	-4.445083	61.296980	-4.445083	61.296980	-2.432859	51.532106
5.300000	-2.338397	-112.268436	-4.587923	58.782566	-4.587923	58.782566	-2.342242	48.600644
5.350000	-2.258168	-114.299568	-4.730918	56.296492	-4.730918	56.296492	-2.256132	45.714318
5.400000	-2.182126	-116.317903	-4.873879	53.838648	-4.873879	53.838648	-2.174345	42.872591
5.450000	-2.110093	-118.323216	-5.016623	51.408867	-5.016623	51.408867	-2.096702	40.074882
5.500000	-2.041897	-120.315352	-5.158972	49.006921	-5.158972	49.006921	-2.023028	37.320572
5.550000	-1.977368	-122.294220	-5.300754	46.632532	-5.300754	46.632532	-1.953151	34.609003
5.600000	-1.916343	-124.259788	-5.441803	44.285373	-5.441803	44.285373	-1.886904	31.939488
5.650000	-1.858691	-126.211934	-5.581923	41.965361	-5.581923	41.965361	-1.824159	29.311753
5.700000	-1.804254	-128.150739	-5.720955	39.672069	-5.720955	39.672069	-1.764753	26.725032
5.750000	-1.752850	-130.076468	-5.858787	37.404760	-5.858787	37.404760	-1.708505	24.178117
5.800000	-1.704337	-131.989288	-5.995277	35.162955	-5.995277	35.162955	-1.655270	21.670229
5.850000	-1.658576	-133.889400	-6.130291	32.946149	-6.130291	32.946149	-1.604907	19.200579
5.900000	-1.615433	-135.777041	-6.263702	30.753814	-6.263702	30.753814	-1.557283	16.768365
5.950000	-1.574782	-137.652479	-6.395386	28.585399	-6.395386	28.585399	-1.512271	14.372779
6.000000	-1.536501	-139.516007	-6.525227	26.440339	-6.525227	26.440339	-1.469748	12.013008
6.050000	-1.500475	-141.367945	-6.653116	24.318052	-6.653116	24.318052	-1.429597	9.688235
6.100000	-1.466592	-143.208630	-6.778947	22.217946	-6.778947	22.217946	-1.391708	7.397641
6.150000	-1.434748	-145.038422	-6.902622	20.139418	-6.902622	20.139418	-1.355974	5.140411
6.200000	-1.404843	-146.857693	-7.024047	18.081860	-7.024047	18.081860	-1.322296	2.915731
6.250000	-1.376781	-148.666831	-7.143133	16.044655	-7.143133	16.044655	-1.290578	0.722789
6.300000	-1.350525	-150.465930	-7.259667	14.027811	-7.259667	14.027811	-1.260784	-1.438233
6.350000	-1.325933	-152.255733	-7.373700	12.030040	-7.373700	12.030040	-1.232769	-3.569174
6.400000	-1.302924	-154.036656	-7.485160	10.050720	-7.485160	10.050720	-1.206452	-5.670824
6.450000	-1.281422	-155.809125	-7.593976	8.089231	-7.593976	8.089231	-1.181758	-7.743966
6.500000	-1.261355	-157.573566	-7.700084	6.144955	-7.700084	6.144955	-1.158613	-9.789373
6.550000	-1.242656	-159.330414	-7.803423	4.217277	-7.803423	4.217277	-1.136951	-11.807811
6.600000	-1.225261	-161.080102	-7.903935	2.305584	-7.903935	2.305584	-1.116707	-13.800034
6.650000	-1.209109	-162.823068	-8.001565	0.409270	-8.001565	0.409270	-1.097820	-15.766787
6.700000	-1.194145	-164.559749	-8.096264	-1.472267	-8.096264	-1.472267	-1.080236	-17.708806
6.750000	-1.180315	-166.290582	-8.187983	-3.339624	-8.187983	-3.339624	-1.063900	-19.626815
6.800000	-1.167568	-168.016004	-8.276677	-5.193393	-8.276677	-5.193393	-1.048762	-21.521529
6.850000	-1.155859	-169.736452	-8.362305	-7.034157	-8.362305	-7.034157	-1.034778	-23.393654
6.900000	-1.145144	-171.452359	-8.444826	-8.862494	-8.444826	-8.862494	-1.021902	-25.243883
6.950000	-1.135380	-173.164158	-8.524204	-10.678977	-8.524204	-10.678977	-1.010094	-27.072903
7.000000	-1.126530	-174.872278	-8.600404	-12.484168	-8.600404	-12.484168	-0.999318	-28.881387
7.050000	-1.118559	-176.577147	-8.673392	-14.278626	-8.673392	-14.278626	-0.989537	-30.670003
7.100000	-1.111431	-178.279190	-8.743137	-16.062902	-8.743137	-16.062902	-0.980721	-32.439407
7.150000	-1.105117	-179.978827	-8.809610	-17.837540	-8.809610	-17.837540	-0.972838	-34.190247
7.200000	-1.099588	178.323523	-8.872783	-19.603076	-8.872783	-19.603076	-0.965863	-35.923165
7.250000	-1.094817	176.627445	-8.932629	-21.360042	-8.932629	-21.360042	-0.959770	-37.638792
7.300000	-1.090779	174.932526	-8.989125	-23.108962	-8.989125	-23.108962	-0.954537	-39.337754
7.350000	-1.087452	173.238358	-9.042244	-24.850354	-9.042244	-24.850354	-0.950143	-41.020668
7.400000	-1.084814	171.544536	-9.091966	-26.584731	-9.091966	-26.584731	-0.946571	-42.688147
7.450000	-1.082848	169.850657	-9.138267	-28.312599	-9.138267	-28.312599	-0.943804	-44.340797
7.500000	-1.081535	168.156322	-9.181127	-30.034459	-9.181127	-30.034459	-0.941828	-45.979219
7.550000	-1.080889	166.461078	-9.220367	-31.750593	-9.220367	-31.750593	-0.940667	-47.603444
7.600000	-1.080866	164.764551	-9.256125	-33.461752	-9.256125	-33.461752	-0.940274	-49.214685
7.650000	-1.081454	163.066353	-9.288382	-35.168426	-9.288382	-35.168426	-0.940644	-50.813530
7.700000	-1.082645	161.366093	-9.317119	-36.871098	-9.317119	-36.871098	-0.941771	-52.400565
7.750000	-1.084430	159.663386	-9.342315	-38.570251	-9.342315	-38.570251	-0.943650	-53.976377
7.800000	-1.086800	157.957849	-9.363952	-40.266364	-9.363952	-40.266364	-0.946282	-55.541550
7.850000	-1.089752	156.249098	-9.382010	-41.959915	-9.382010	-41.959915	-0.949666	-57.096668
7.900000	-1.093282	154.536753	-9.396469	-43.651383	-9.396469	-43.651383	-0.953805	-58.642317
7.950000	-1.097387	152.820435	-9.407310	-45.341243	-9.407310	-45.341243	-0.958703	-60.179086
8.000000	-1.102067	151.099765	-9.414513	-47.029974	-9.414513	-47.029974	-0.964368	-61.707565
8.050000	-1.107324	149.374366	-9.418056	-48.718056	-9.418056	-48.718056	-0.970809	-63.228349
8.100000	-1.113160	147.643859	-9.417918	-50.405970	-9.417918	-50.405970	-0.978035	-64.742038
8.150000	-1.119582	145.907868	-9.414079	-52.094203	-9.414079	-52.094203	-0.986062	-66.249239
8.200000	-1.126595	144.166014	-9.406514	-53.783245	-9.406514	-53.783245	-0.994904	-67.750567
8.250000	-1.134209	142.417920	-9.395202	-55.473592	-9.395202	-55.473592	-1.004580	-69.246646
8.300000	-1.142435	140.663205	-9.380116	-57.165746	-9.380116	-57.165746	-1.015111	-70.738109
8.350000	-1.151322	138.901049	-9.361007	-58.860398	-9.361007	-58.860398	-1.026573	-72.225433
8.400000	-1.160729	137.132962	-9.338811	-60.557268	-9.338811	-60.557268	-1.038768	-73.709962
8.450000	-1.170999	135.354626	-9.311527	-62.258621	-9.311527	-62.258621	-1.052188	-75.191103
8.500000	-1.181855	133.569238	-9.280939	-63.963466	-9.280939	-63.963466	-1.066444	-76.670809
8.550000	-1.193309	131.776629	-9.247051	-65.672048	-9.247051	-65.672048	-1.081553	-78.149389
8.600000	-1.205603	129.973709	-9.208579	-67.386394	-9.208579	-67.386394	-1.097862	-79.627296
8.650000	-1.218562	128.162630	-9.166665	-69.105695	-9.166665	-69.105695	-1.115126	-81.105509
8.700000	-1.232422	126.340462	-9.120153	-70.832089	-9.120153	-70.832089	-1.133678	-82.584890
8.750000	-1.247040	124.509054	-9.069987	-72.564764	-9.069987	-72.564764	-1.153317	-84.066016
8.800000	-1.262637	122.665764	-9.015197	-74.305954	-9.015197	-74.305954	-1.174354	-85.550284
8.850000	-1.279078	120.812449	-8.956688	-76.054692	-8.956688	-76.054692	-1.196596	-87.037936
8.900000	-1.296555	118.946949	-8.893715	-77.813031	-8.893715	-77.813031	-1.220312	-88.530545
8.950000	-1.315033	117.069946	-8.826682	-79.580834	-8.826682	-79.580834	-1.245452	-90.028618
9.000000	-1.334617	115.180525	-8.755360	-81.359296	-8.755360	-81.359296	-1.272156	-91.533437
9.050000	-1.355401	113.277981	-8.679608	-83.149480	-8.679608	-83.149480	-1.300552	-93.046253
9.100000	-1.377373	111.362857	-8.599762	-84.951355	-8.599762	-84.951355	-1.330618	-94.567579
9.150000	-1.400790	109.432838	-8.515076	-86.767622	-8.515076	-86.767622	-1.362706	-96.099984
9.200000	-1.425519	107.489870	-8.426413	-88.596883	-8.426413	-88.596883	-1.396628	-97.642892
9.250000	-1.451944	105.530639	-8.332672	-90.443102	-8.332672	-90.443102	-1.432905	-99.200122
9.300000	-1.479923	103.557231	-8.234761	-92.304673	-8.234761	-92.304673	-1.471338	-100.770832
9.350000	-1.509777	101.567329	-8.131962	-94.184789	-8.131962	-94.184789	-1.512360	-102.358407
9.400000	-1.541552	99.561327	-8.024562	-96.083696	-8.024562	-96.083696	-1.556033	-103.963616
9.450000	-1.575410	97.538683	-7.912501	-98.002786	-7.912501	-98.002786	-1.602574	-105.588334
9.500000	-1.611654	95.497847	-7.795367	-99.944800	-7.795367	-99.944800	-1.652394	-107.235809
9.550000	-1.650221	93.440323	-7.673847	-101.908682	-7.673847	-101.908682	-1.705417	-108.905548
9.600000	-1.691765	91.362355	-7.546741	-103.900467	-7.546741	-103.900467	-1.762528	-110.604381
9.650000	-1.736026	89.267014	-7.415308	-105.916976	-7.415308	-105.916976	-1.823398	-112.329583
9.700000	-1.783784	87.150369	-7.278290	-107.965136	-7.278290	-107.965136	-1.889097	-114.089272
9.750000	-1.834927	85.014566	-7.136619	-110.043052	-7.136619	-110.043052	-1.959510	-115.882054
9.800000	-1.890063	82.857506	-6.989697	-112.155578	-6.989697	-112.155578	-2.035504	-117.714100
9.850000	-1.949507	80.679104	-6.837655	-114.304580	-6.837655	-114.304580	-2.117567	-119.588327
9.900000	-2.013528	78.479748	-6.680786	-116.491328	-6.680786	-116.491328	-2.206145	-121.507051
9.950000	-2.083049	76.256952	-6.518338	-118.722732	-6.518338	-118.722732	-2.302611	-123.479420
10.000000	-2.157835	74.013865	-6.351597	-120.995167	-6.351597	-120.995167	-2.406766	-125.502012
